 &FCI NORB= 8,NELEC= 4,MS2= 0,
  ORBSYM=1,1,1,1,1,1,1,1
  ISYM=1
 &END
   0.4                    1     1     1     1
   0.4                    2     2     2     2
   0.4                    3     3     3     3
   0.4                    4     4     4     4
   0.4                    5     5     5     5
   0.4                    6     6     6     6
   0.4                    7     7     7     7
   0.4                    8     8     8     8
   -4.45                  1     1     0     0
   -0.22                  2     1     0     0
   -2.24                  2     2     0     0
   -3.58                  3     3     0     0
    0.64                  4     3     0     0
   -2.33                  4     4     0     0
   -3.58                  5     5     0     0
    0.64                  6     5     0     0
   -2.33                  6     6     0     0
   -4.45                  7     7     0     0
   -0.22                  8     7     0     0
   -2.24                  8     8     0     0
   0.0      0  0  0  0
