 &FCI NORB= 28,NELEC=28,MS2= 0,
  ORBSYM=1,1,1,1,1,1,1,1,1,1,1,1,1,1,1,1,1,1,1,1,1,1,1,1,1,1,1,1,
  ISYM=1
 &END
   0.692984424921      1  1  1  1
  -0.450545940961E-02  2  1  1  1
   0.288992896246E-02  2  1  2  1
   0.332216189558      2  2  1  1
  -0.448770998859E-02  2  2  2  1
   0.692644367909      2  2  2  2
  -0.682327209194E-03  3  1  1  1
   0.350328783745E-04  3  1  2  1
   0.216754134719E-03  3  1  2  2
   0.680275182595E-05  3  1  3  1
   0.616800616880E-03  3  2  1  1
   0.542175389818E-04  3  2  2  1
   0.443734472226E-04  3  2  2  2
   0.158689652271E-05  3  2  3  1
   0.234824937889E-04  3  2  3  2
   0.180761533580      3  3  1  1
   0.649257910453E-03  3  3  2  1
   0.206843314517      3  3  2  2
  -0.659552687845E-03  3  3  3  1
   0.192023850681E-03  3  3  3  2
   0.700820419405      3  3  3  3
   0.256020972452E-04  4  1  1  1
  -0.167869637322E-05  4  1  2  1
  -0.755919945604E-05  4  1  2  2
  -0.837625271835E-07  4  1  3  1
   0.421801039616E-07  4  1  3  2
  -0.801855126579E-05  4  1  3  3
   0.690434770040E-08  4  1  4  1
  -0.653776159220E-04  4  2  1  1
  -0.119033826033E-05  4  2  2  1
  -0.147936925541E-03  4  2  2  2
  -0.111654099727E-06  4  2  3  1
  -0.811064570215E-06  4  2  3  2
   0.439007051219E-04  4  2  3  3
  -0.250745313025E-07  4  2  4  1
   0.360205314127E-06  4  2  4  2
   0.253602678654E-04  4  3  1  1
   0.215899858157E-05  4  3  2  1
  -0.429489647660E-04  4  3  2  2
  -0.114708780238E-05  4  3  3  1
   0.332112052925E-05  4  3  3  2
   0.634092626653E-03  4  3  3  3
   0.747195960726E-07  4  3  4  1
  -0.749625464968E-06  4  3  4  2
   0.605593864028E-05  4  3  4  3
   0.106506744936      4  4  1  1
  -0.360108269186E-03  4  4  2  1
   0.138781059325      4  4  2  2
  -0.253231433108E-04  4  4  3  1
  -0.316434324450E-03  4  4  3  2
   0.179417201025      4  4  3  3
   0.234698535987E-04  4  4  4  1
  -0.153506550175E-03  4  4  4  2
   0.639394228936E-03  4  4  4  3
   0.692767484959      4  4  4  4
   0.156874634896E-03  5  1  1  1
  -0.601710838280E-05  5  1  2  1
  -0.363147816633E-05  5  1  2  2
  -0.810718184445E-06  5  1  3  1
  -0.282990268844E-06  5  1  3  2
  -0.460741828005E-04  5  1  3  3
   0.160042454070E-07  5  1  4  1
  -0.236869467160E-08  5  1  4  2
  -0.473331787422E-07  5  1  4  3
  -0.728800921576E-05  5  1  4  4
   0.360284325060E-06  5  1  5  1
  -0.727301291314E-05  5  2  1  1
  -0.304132800119E-05  5  2  2  1
   0.132824082516E-03  5  2  2  2
  -0.181707428080E-06  5  2  3  1
  -0.410952150960E-06  5  2  3  2
  -0.435745025289E-04  5  2  3  3
  -0.823901140330E-09  5  2  4  1
  -0.343949368226E-07  5  2  4  2
  -0.479581475324E-07  5  2  4  3
  -0.213855280590E-05  5  2  4  4
   0.494317312969E-07  5  2  5  1
   0.101921848993E-06  5  2  5  2
  -0.310961005553E-03  5  3  1  1
  -0.418118666497E-05  5  3  2  1
  -0.242357502836E-03  5  3  2  2
  -0.337675911699E-05  5  3  3  1
  -0.355011483487E-05  5  3  3  2
   0.169575229580E-03  5  3  3  3
   0.945409144717E-10  5  3  4  1
   0.141295601471E-06  5  3  4  2
  -0.484814119145E-06  5  3  4  3
   0.106245437394E-03  5  3  4  4
   0.828213036584E-06  5  3  5  1
   0.478494041492E-06  5  3  5  2
   0.222126976792E-04  5  3  5  3
  -0.603982260337E-06  5  4  1  1
  -0.103481133707E-07  5  4  2  1
  -0.536368154538E-06  5  4  2  2
  -0.293935353251E-08  5  4  3  1
  -0.259203908058E-08  5  4  3  2
  -0.208895099424E-05  5  4  3  3
   0.138296796880E-09  5  4  4  1
  -0.329466141397E-08  5  4  4  2
   0.133881696284E-07  5  4  4  3
   0.469608753125E-05  5  4  4  4
   0.301602921878E-08  5  4  5  1
   0.209347368260E-08  5  4  5  2
   0.458537742724E-07  5  4  5  3
   0.466020433330E-09  5  4  5  4
   0.138441027290      5  5  1  1
   0.129293763720E-03  5  5  2  1
   0.122370722494      5  5  2  2
   0.428544670972E-04  5  5  3  1
   0.251053783852E-03  5  5  3  2
   0.205759347186      5  5  3  3
  -0.147751509471E-06  5  5  4  1
   0.338103904403E-05  5  5  4  2
   0.866771292755E-04  5  5  4  3
   0.101668394273      5  5  4  4
   0.147523319551E-03  5  5  5  1
   0.134689960739E-04  5  5  5  2
   0.743909671532E-04  5  5  5  3
   0.368911348458E-05  5  5  5  4
   0.692566080586      5  5  5  5
  -0.541852217894E-05  6  1  1  1
   0.557085138425E-06  6  1  2  1
   0.214140687044E-05  6  1  2  2
   0.177950996149E-07  6  1  3  1
  -0.168881443454E-07  6  1  3  2
   0.286520606652E-05  6  1  3  3
  -0.931996611384E-09  6  1  4  1
   0.136006761296E-08  6  1  4  2
  -0.531088006560E-08  6  1  4  3
  -0.987168292387E-06  6  1  4  4
  -0.399227060758E-08  6  1  5  1
   0.431975238465E-09  6  1  5  2
   0.243185485738E-08  6  1  5  3
  -0.356336540587E-10  6  1  5  4
   0.732935523250E-06  6  1  5  5
   0.594130367556E-09  6  1  6  1
   0.339451427883E-05  6  2  1  1
   0.194670080592E-06  6  2  2  1
   0.144587885735E-04  6  2  2  2
  -0.359651729479E-07  6  2  3  1
   0.463878142203E-06  6  2  3  2
  -0.408557148324E-04  6  2  3  3
   0.494022747526E-08  6  2  4  1
  -0.432023415277E-07  6  2  4  2
   0.167191111867E-06  6  2  4  3
  -0.893702505650E-05  6  2  4  4
   0.102604750853E-07  6  2  5  1
   0.149696543792E-07  6  2  5  2
  -0.181385486277E-07  6  2  5  3
  -0.396835372327E-09  6  2  5  4
  -0.699287782204E-05  6  2  5  5
  -0.340314623650E-08  6  2  6  1
   0.924686260603E-07  6  2  6  2
   0.961039605729E-04  6  3  1  1
  -0.109169394735E-05  6  3  2  1
   0.221078887060E-03  6  3  2  2
   0.657510722451E-06  6  3  3  1
  -0.324536879367E-05  6  3  3  2
   0.104553698281E-03  6  3  3  3
  -0.108689476491E-07  6  3  4  1
   0.233705411902E-06  6  3  4  2
  -0.140749150386E-05  6  3  4  3
   0.597764604477E-03  6  3  4  4
  -0.129540975438E-06  6  3  5  1
  -0.114522742888E-07  6  3  5  2
  -0.346143788142E-05  6  3  5  3
   0.147264335552E-07  6  3  5  4
  -0.243712502692E-03  6  3  5  5
  -0.469942881873E-07  6  3  6  1
  -0.285348918870E-06  6  3  6  2
   0.209972808781E-04  6  3  6  3
  -0.117044005181E-03  6  4  1  1
  -0.331460992385E-05  6  4  2  1
  -0.120600750034E-03  6  4  2  2
   0.323638395101E-06  6  4  3  1
   0.398313756574E-05  6  4  3  2
  -0.629078474343E-03  6  4  3  3
   0.292922328428E-06  6  4  4  1
  -0.590060021108E-05  6  4  4  2
   0.322337820638E-04  6  4  4  3
   0.446449282586E-02  6  4  4  4
   0.135075723461E-06  6  4  5  1
   0.100765036353E-06  6  4  5  2
   0.101621276121E-05  6  4  5  3
   0.485221481743E-06  6  4  5  4
   0.676660651169E-04  6  4  5  5
   0.142265448510E-06  6  4  6  1
   0.301507094418E-05  6  4  6  2
  -0.436449209496E-04  6  4  6  3
   0.268616137403E-02  6  4  6  4
  -0.255937778009E-05  6  5  1  1
  -0.996683528443E-07  6  5  2  1
  -0.724784126005E-05  6  5  2  2
   0.461942158908E-07  6  5  3  1
  -0.168182130453E-07  6  5  3  2
  -0.413578933807E-04  6  5  3  3
   0.147929484927E-08  6  5  4  1
  -0.100248399898E-07  6  5  4  2
   0.323303210346E-07  6  5  4  3
   0.222857110812E-05  6  5  4  4
   0.335938790687E-07  6  5  5  1
   0.149449542992E-07  6  5  5  2
  -0.358403392839E-06  6  5  5  3
   0.240049162939E-08  6  5  5  4
   0.124209302051E-03  6  5  5  5
  -0.233706357252E-08  6  5  6  1
   0.151645566874E-07  6  5  6  2
   0.461101376284E-06  6  5  6  3
   0.102130541798E-07  6  5  6  4
   0.902984180776E-07  6  5  6  5
   0.102028898342      6  6  1  1
  -0.795852230577E-04  6  6  2  1
   0.122175191789      6  6  2  2
  -0.862271014946E-04  6  6  3  1
  -0.243053486393E-03  6  6  3  2
   0.204675547470      6  6  3  3
   0.613777237456E-05  6  6  4  1
   0.562171177601E-05  6  6  4  2
  -0.192193510551E-03  6  6  4  3
   0.328108482763      6  6  4  4
  -0.403761489264E-05  6  6  5  1
  -0.722810343731E-05  6  6  5  2
   0.237640773157E-03  6  6  5  3
  -0.149175974622E-05  6  6  5  4
   0.121546406497      6  6  5  5
  -0.557642918392E-05  6  6  6  1
   0.127619015797E-03  6  6  6  2
   0.199071025200E-03  6  6  6  3
   0.490463235132E-02  6  6  6  4
   0.158433236629E-04  6  6  6  5
   0.701227541677      6  6  6  6
  -0.554373054741E-05  7  1  1  1
  -0.185056547125E-06  7  1  2  1
  -0.120499176111E-05  7  1  2  2
   0.179863770674E-07  7  1  3  1
   0.869836584446E-10  7  1  3  2
   0.289772339031E-05  7  1  3  3
  -0.247208468340E-09  7  1  4  1
   0.935124501327E-09  7  1  4  2
  -0.234016549445E-08  7  1  4  3
   0.719725292026E-06  7  1  4  4
  -0.222617651600E-08  7  1  5  1
  -0.155017280900E-08  7  1  5  2
   0.184306832011E-08  7  1  5  3
  -0.338964340227E-10  7  1  5  4
   0.162962237707E-05  7  1  5  5
   0.984601828639E-11  7  1  6  1
  -0.662613177587E-09  7  1  6  2
  -0.986088729764E-08  7  1  6  3
  -0.112802158313E-07  7  1  6  4
  -0.272105401572E-09  7  1  6  5
   0.931582040440E-06  7  1  6  6
   0.650079020931E-09  7  1  7  1
  -0.693432316216E-05  7  2  1  1
   0.280769207891E-06  7  2  2  1
  -0.243919244652E-04  7  2  2  2
   0.636943613754E-08  7  2  3  1
  -0.792015502553E-07  7  2  3  2
   0.158737378350E-04  7  2  3  3
  -0.615461953709E-09  7  2  4  1
   0.148545923158E-07  7  2  4  2
  -0.291360395689E-07  7  2  4  3
   0.843379074262E-05  7  2  4  4
  -0.570241774904E-08  7  2  5  1
  -0.117146743167E-07  7  2  5  2
   0.598240046704E-08  7  2  5  3
  -0.137629539624E-09  7  2  5  4
   0.894272827024E-06  7  2  5  5
   0.212539393499E-09  7  2  6  1
  -0.105017515367E-07  7  2  6  2
   0.535015757495E-07  7  2  6  3
  -0.199629931425E-06  7  2  6  4
  -0.230492372887E-08  7  2  6  5
   0.821165307638E-05  7  2  6  6
   0.100432161519E-08  7  2  7  1
   0.676998776357E-08  7  2  7  2
   0.105560177344E-03  7  3  1  1
   0.189713272369E-05  7  3  2  1
   0.200143013295E-04  7  3  2  2
   0.663945202656E-06  7  3  3  1
   0.405193974024E-05  7  3  3  2
   0.130042365915E-03  7  3  3  3
   0.106292150914E-08  7  3  4  1
  -0.207404471384E-06  7  3  4  2
   0.316881378840E-05  7  3  4  3
  -0.315847616311E-03  7  3  4  4
   0.883928692658E-07  7  3  5  1
  -0.629519794795E-07  7  3  5  2
   0.866550807914E-06  7  3  5  3
  -0.436658855889E-09  7  3  5  4
   0.535163936482E-03  7  3  5  5
  -0.973285785687E-08  7  3  6  1
   0.875192850776E-07  7  3  6  2
   0.710565993095E-06  7  3  6  3
   0.164827550376E-05  7  3  6  4
  -0.163886735253E-06  7  3  6  5
  -0.477287904260E-03  7  3  6  6
  -0.494260809489E-07  7  3  7  1
  -0.915396791503E-07  7  3  7  2
   0.230392966239E-04  7  3  7  3
   0.812569632639E-05  7  4  1  1
   0.194082269168E-07  7  4  2  1
   0.136830259574E-04  7  4  2  2
  -0.537825607595E-07  7  4  3  1
  -0.195365132126E-06  7  4  3  2
   0.489802077369E-04  7  4  3  3
  -0.144157872968E-07  7  4  4  1
   0.138144886391E-06  7  4  4  2
  -0.744441086733E-06  7  4  4  3
  -0.152104032876E-03  7  4  4  4
  -0.133221748040E-07  7  4  5  1
  -0.418294084418E-08  7  4  5  2
  -0.637427573525E-07  7  4  5  3
  -0.203222999903E-08  7  4  5  4
  -0.184120352290E-04  7  4  5  5
   0.988129998525E-09  7  4  6  1
  -0.167365309040E-07  7  4  6  2
   0.261130370328E-06  7  4  6  3
  -0.290621938497E-05  7  4  6  4
   0.321240805645E-08  7  4  6  5
   0.701684227104E-04  7  4  6  6
   0.412576055943E-08  7  4  7  1
   0.166967676722E-07  7  4  7  2
  -0.860556252728E-06  7  4  7  3
   0.317710586354E-06  7  4  7  4
   0.151838392660E-03  7  5  1  1
   0.754128364592E-06  7  5  2  1
   0.161952087212E-03  7  5  2  2
  -0.300871598103E-06  7  5  3  1
   0.508144797248E-06  7  5  3  2
   0.544853573433E-03  7  5  3  3
  -0.479218609584E-08  7  5  4  1
   0.377335248306E-07  7  5  4  2
   0.277438808512E-06  7  5  4  3
   0.158859244153E-03  7  5  4  4
  -0.615534152655E-07  7  5  5  1
  -0.195479641486E-06  7  5  5  2
   0.120949394819E-05  7  5  5  3
  -0.300371830251E-07  7  5  5  4
   0.437462327868E-04  7  5  5  5
   0.452440150626E-08  7  5  6  1
  -0.345168563974E-07  7  5  6  2
  -0.150413979239E-05  7  5  6  3
   0.853721120912E-06  7  5  6  4
  -0.378311646247E-06  7  5  6  5
   0.241866435393E-03  7  5  6  6
   0.334714496360E-07  7  5  7  1
   0.639820603599E-07  7  5  7  2
   0.893524101446E-06  7  5  7  3
   0.913672170937E-07  7  5  7  4
   0.225731944251E-04  7  5  7  5
  -0.132471343730E-03  7  6  1  1
  -0.172808191673E-06  7  6  2  1
  -0.159753139763E-03  7  6  2  2
   0.287349207699E-06  7  6  3  1
   0.486355179471E-06  7  6  3  2
  -0.448022108661E-03  7  6  3  3
   0.173666818799E-07  7  6  4  1
  -0.208384579528E-06  7  6  4  2
   0.131927478476E-05  7  6  4  3
  -0.136158020773E-03  7  6  4  4
  -0.144885530942E-07  7  6  5  1
   0.351270200448E-07  7  6  5  2
  -0.145529673835E-05  7  6  5  3
   0.120464267745E-07  7  6  5  4
  -0.240393923455E-03  7  6  5  5
  -0.212752352810E-07  7  6  6  1
   0.349527116949E-06  7  6  6  2
   0.624838258397E-06  7  6  6  3
   0.238979316986E-04  7  6  6  4
   0.452329023013E-06  7  6  6  5
   0.173869846894E-03  7  6  6  6
  -0.218727598661E-07  7  6  7  1
  -0.118606647486E-06  7  6  7  2
   0.544740895473E-06  7  6  7  3
   0.509307430854E-06  7  6  7  4
  -0.343658636170E-05  7  6  7  5
   0.207352423895E-04  7  6  7  6
   0.102504135324      7  7  1  1
   0.123956697835E-03  7  7  2  1
   0.106574256254      7  7  2  2
  -0.883759273270E-04  7  7  3  1
   0.313774003591E-04  7  7  3  2
   0.206548602753      7  7  3  3
  -0.276230537188E-06  7  7  4  1
   0.130437355688E-04  7  7  4  2
  -0.363512026199E-04  7  7  4  3
   0.137085812582      7  7  4  4
   0.219414044196E-04  7  7  5  1
  -0.861336821005E-05  7  7  5  2
   0.539375269220E-03  7  7  5  3
  -0.114610259047E-05  7  7  5  4
   0.206149193270      7  7  5  5
   0.972465535478E-06  7  7  6  1
   0.452842001205E-05  7  7  6  2
  -0.457424711179E-03  7  7  6  3
   0.116714785770E-02  7  7  6  4
  -0.412391467948E-04  7  7  6  5
   0.204839094745      7  7  6  6
  -0.597111803409E-05  7  7  7  1
  -0.245175774090E-04  7  7  7  2
   0.144551584550E-03  7  7  7  3
  -0.144652456562E-03  7  7  7  4
   0.185920452195E-03  7  7  7  5
   0.110321524369E-03  7  7  7  6
   0.701012670823      7  7  7  7
   0.175810279305E-05  8  1  1  1
   0.243965117385E-07  8  1  2  1
   0.955501479960E-06  8  1  2  2
  -0.336279801587E-08  8  1  3  1
   0.881926823511E-09  8  1  3  2
  -0.621484265156E-06  8  1  3  3
   0.553018718643E-10  8  1  4  1
  -0.365664192323E-09  8  1  4  2
  -0.829447231774E-09  8  1  4  3
  -0.651110365922E-07  8  1  4  4
   0.523985498640E-09  8  1  5  1
   0.366557551021E-09  8  1  5  2
  -0.191842251351E-08  8  1  5  3
   0.610744152474E-12  8  1  5  4
  -0.126405562011E-05  8  1  5  5
   0.145566511239E-10  8  1  6  1
   0.862359413126E-10  8  1  6  2
   0.179333908209E-08  8  1  6  3
   0.225094278248E-09  8  1  6  4
   0.276043930761E-10  8  1  6  5
  -0.173894860877E-06  8  1  6  6
  -0.106853709845E-09  8  1  7  1
  -0.588312255198E-10  8  1  7  2
  -0.252768569364E-08  8  1  7  3
   0.550235284523E-10  8  1  7  4
  -0.214848023957E-08  8  1  7  5
   0.126996321036E-08  8  1  7  6
  -0.460656407555E-06  8  1  7  7
   0.821529154969E-10  8  1  8  1
   0.266447622132E-06  8  2  1  1
   0.545256416533E-07  8  2  2  1
  -0.447234783286E-06  8  2  2  2
   0.376502314300E-09  8  2  3  1
   0.120043957148E-07  8  2  3  2
  -0.106987543332E-06  8  2  3  3
   0.278980214811E-10  8  2  4  1
  -0.245838676966E-09  8  2  4  2
   0.114196966123E-08  8  2  4  3
  -0.203838742093E-06  8  2  4  4
   0.163416225765E-10  8  2  5  1
  -0.271750730090E-09  8  2  5  2
  -0.125072844949E-08  8  2  5  3
   0.297917232600E-11  8  2  5  4
   0.155148375410E-06  8  2  5  5
  -0.151423581912E-10  8  2  6  1
   0.326681169868E-09  8  2  6  2
  -0.676720999335E-09  8  2  6  3
   0.164797055148E-08  8  2  6  4
   0.974632025241E-10  8  2  6  5
  -0.183691297900E-06  8  2  6  6
   0.101915636809E-11  8  2  7  1
  -0.498730496536E-10  8  2  7  2
   0.950351519872E-09  8  2  7  3
  -0.537181273568E-10  8  2  7  4
  -0.840644851650E-09  8  2  7  5
   0.594065848150E-09  8  2  7  6
  -0.152951189486E-06  8  2  7  7
   0.690511683459E-11  8  2  8  1
   0.118166559928E-10  8  2  8  2
   0.126965645461E-04  8  3  1  1
   0.119860711732E-06  8  3  2  1
   0.227201959292E-04  8  3  2  2
  -0.171896951668E-06  8  3  3  1
  -0.395316703425E-07  8  3  3  2
   0.126391906165E-03  8  3  3  3
  -0.222319394535E-08  8  3  4  1
   0.100116749144E-07  8  3  4  2
   0.158270907427E-06  8  3  4  3
   0.132572471640E-04  8  3  4  4
  -0.283296951262E-07  8  3  5  1
  -0.499067988882E-08  8  3  5  2
  -0.319095224851E-06  8  3  5  3
  -0.246802061229E-09  8  3  5  4
  -0.424046474410E-04  8  3  5  5
   0.213722756478E-09  8  3  6  1
  -0.103453380709E-07  8  3  6  2
   0.328337992376E-06  8  3  6  3
  -0.386245812987E-06  8  3  6  4
   0.118675397014E-07  8  3  6  5
   0.517706329963E-05  8  3  6  6
   0.246312409460E-09  8  3  7  1
   0.314769410403E-08  8  3  7  2
  -0.338009066930E-06  8  3  7  3
   0.257174075461E-07  8  3  7  4
  -0.181017952109E-06  8  3  7  5
   0.849132231520E-07  8  3  7  6
  -0.406129939449E-04  8  3  7  7
   0.103083488127E-08  8  3  8  1
   0.156882773861E-09  8  3  8  2
   0.915552631018E-07  8  3  8  3
   0.297580855833E-07  8  4  1  1
   0.268050942045E-08  8  4  2  1
  -0.720233432891E-07  8  4  2  2
  -0.599937655512E-09  8  4  3  1
   0.218411832949E-08  8  4  3  2
   0.386101150590E-06  8  4  3  3
  -0.104791310404E-10  8  4  4  1
   0.314680900983E-09  8  4  4  2
  -0.101294386007E-08  8  4  4  3
  -0.108158806856E-05  8  4  4  4
   0.526118321252E-10  8  4  5  1
  -0.496016250811E-10  8  4  5  2
   0.160222086189E-08  8  4  5  3
  -0.632919661748E-10  8  4  5  4
   0.343922040303E-06  8  4  5  5
  -0.533459631609E-11  8  4  6  1
   0.289047414700E-09  8  4  6  2
  -0.704702148811E-08  8  4  6  3
  -0.178323009660E-06  8  4  6  4
  -0.291377572622E-09  8  4  6  5
   0.267199317283E-06  8  4  6  6
   0.190540458007E-11  8  4  7  1
  -0.761393578962E-11  8  4  7  2
   0.188925393314E-08  8  4  7  3
   0.170810036975E-09  8  4  7  4
   0.179759910535E-08  8  4  7  5
  -0.135751420652E-08  8  4  7  6
   0.714448197798E-06  8  4  7  7
  -0.213758814567E-10  8  4  8  1
  -0.124270950903E-11  8  4  8  2
  -0.748502075542E-09  8  4  8  3
   0.445800683283E-10  8  4  8  4
  -0.235169867278E-04  8  5  1  1
  -0.657674234466E-06  8  5  2  1
  -0.612932650408E-04  8  5  2  2
   0.269627331950E-06  8  5  3  1
  -0.654844190065E-07  8  5  3  2
  -0.278612240976E-03  8  5  3  3
   0.355490150385E-08  8  5  4  1
  -0.264412282937E-07  8  5  4  2
  -0.953442203760E-07  8  5  4  3
  -0.116733930126E-03  8  5  4  4
  -0.244027651659E-06  8  5  5  1
   0.672284875790E-07  8  5  5  2
  -0.411044303447E-05  8  5  5  3
  -0.454219692060E-09  8  5  5  4
   0.293902380226E-04  8  5  5  5
  -0.261859036791E-08  8  5  6  1
   0.612400714958E-08  8  5  6  2
   0.937907853408E-06  8  5  6  3
  -0.797597522590E-06  8  5  6  4
   0.343385019488E-06  8  5  6  5
  -0.185617937431E-03  8  5  6  6
   0.135607150684E-08  8  5  7  1
   0.672790085968E-08  8  5  7  2
  -0.166070484978E-05  8  5  7  3
   0.108495245606E-06  8  5  7  4
   0.530156222221E-06  8  5  7  5
   0.583398046711E-06  8  5  7  6
  -0.542199572386E-03  8  5  7  7
   0.202833379957E-07  8  5  8  1
   0.684558609166E-08  8  5  8  2
   0.501655536857E-06  8  5  8  3
  -0.621594582491E-08  8  5  8  4
   0.251690647033E-04  8  5  8  5
   0.219890733521E-05  8  6  1  1
   0.175816847805E-07  8  6  2  1
   0.183552027861E-05  8  6  2  2
  -0.460933260857E-08  8  6  3  1
   0.116762372128E-07  8  6  3  2
   0.760755148536E-05  8  6  3  3
  -0.504694972130E-09  8  6  4  1
   0.251038298413E-08  8  6  4  2
  -0.590858320765E-08  8  6  4  3
  -0.754353938463E-05  8  6  4  4
   0.144059753904E-08  8  6  5  1
  -0.965425986706E-09  8  6  5  2
   0.429924722230E-07  8  6  5  3
  -0.216271119304E-09  8  6  5  4
   0.744788253685E-05  8  6  5  5
   0.717401050379E-09  8  6  6  1
  -0.790426577954E-08  8  6  6  2
  -0.112588777897E-06  8  6  6  3
  -0.111293930462E-06  8  6  6  4
  -0.969710360986E-08  8  6  6  5
  -0.221015345182E-04  8  6  6  6
   0.100950493132E-10  8  6  7  1
   0.464406642004E-10  8  6  7  2
   0.525000605730E-07  8  6  7  3
  -0.198298094380E-08  8  6  7  4
   0.549947130381E-07  8  6  7  5
  -0.842009363476E-07  8  6  7  6
   0.142954794966E-04  8  6  7  7
  -0.305167639388E-09  8  6  8  1
  -0.573014725159E-10  8  6  8  2
  -0.953585453048E-08  8  6  8  3
   0.229947153373E-09  8  6  8  4
  -0.119717652223E-06  8  6  8  5
   0.555264054903E-08  8  6  8  6
  -0.100464312811E-03  8  7  1  1
  -0.291275383328E-06  8  7  2  1
  -0.844691963151E-04  8  7  2  2
   0.761672770969E-07  8  7  3  1
  -0.387159444999E-06  8  7  3  2
  -0.236080091988E-03  8  7  3  3
   0.277437510109E-08  8  7  4  1
  -0.116222334944E-07  8  7  4  2
  -0.237247241662E-06  8  7  4  3
  -0.160261915819E-04  8  7  4  4
  -0.898341675528E-07  8  7  5  1
   0.112197772427E-07  8  7  5  2
  -0.138175710702E-05  8  7  5  3
  -0.852622031516E-09  8  7  5  4
  -0.441306201571E-03  8  7  5  5
  -0.198514420414E-08  8  7  6  1
   0.423840382066E-07  8  7  6  2
   0.517263336543E-06  8  7  6  3
   0.162899981578E-05  8  7  6  4
   0.805271481157E-07  8  7  6  5
   0.220799079256E-04  8  7  6  6
  -0.687942175549E-08  8  7  7  1
  -0.418770757000E-07  8  7  7  2
  -0.322827645275E-05  8  7  7  3
   0.979593816338E-07  8  7  7  4
  -0.208844425925E-06  8  7  7  5
   0.359540796763E-05  8  7  7  6
   0.143205246324E-03  8  7  7  7
   0.842692202449E-08  8  7  8  1
  -0.141850961190E-08  8  7  8  2
   0.439303519559E-06  8  7  8  3
  -0.166226591551E-07  8  7  8  4
   0.331513483013E-06  8  7  8  5
  -0.695890444829E-07  8  7  8  6
   0.208918397336E-04  8  7  8  7
   0.847876282140E-01  8  8  1  1
   0.523187525193E-04  8  8  2  1
   0.806358916482E-01  8  8  2  2
  -0.617514690389E-05  8  8  3  1
   0.634394306618E-04  8  8  3  2
   0.121859498733      8  8  3  3
   0.587250999091E-07  8  8  4  1
   0.337944474007E-05  8  8  4  2
   0.766899655473E-05  8  8  4  3
   0.841860256205E-01  8  8  4  4
   0.238733553501E-04  8  8  5  1
   0.985721835894E-06  8  8  5  2
   0.223300419336E-03  8  8  5  3
   0.639263045011E-06  8  8  5  4
   0.205102047441      8  8  5  5
   0.340160932713E-06  8  8  6  1
   0.111642550449E-06  8  8  6  2
  -0.161359165522E-03  8  8  6  3
   0.211405909550E-03  8  8  6  4
   0.500860784654E-05  8  8  6  5
   0.105587643805      8  8  6  6
  -0.800740374567E-06  8  8  7  1
  -0.394751871919E-05  8  8  7  2
   0.235803998855E-03  8  8  7  3
  -0.241634652308E-04  8  8  7  4
  -0.464610868010E-03  8  8  7  5
   0.164781129095E-04  8  8  7  6
   0.204960570650      8  8  7  7
   0.226435129505E-05  8  8  8  1
   0.507506779425E-06  8  8  8  2
   0.159058247203E-04  8  8  8  3
  -0.101230805292E-05  8  8  8  4
   0.109723952866E-03  8  8  8  5
  -0.222351038792E-04  8  8  8  6
   0.711084829220E-04  8  8  8  7
   0.692601992937      8  8  8  8
  -0.274254055939E-06  9  1  1  1
   0.697754951222E-08  9  1  2  1
  -0.111125043096E-07  9  1  2  2
   0.106663100938E-08  9  1  3  1
   0.125077160320E-09  9  1  3  2
   0.434293676460E-07  9  1  3  3
  -0.229203309048E-10  9  1  4  1
   0.168935961006E-10  9  1  4  2
  -0.640060845167E-10  9  1  4  3
   0.272006558125E-07  9  1  4  4
  -0.228486047406E-09  9  1  5  1
  -0.368214445388E-10  9  1  5  2
  -0.262618328819E-09  9  1  5  3
  -0.727868758697E-12  9  1  5  4
   0.597003618654E-07  9  1  5  5
   0.631109470512E-11  9  1  6  1
  -0.125385136960E-10  9  1  6  2
  -0.258989950992E-09  9  1  6  3
   0.235487116839E-09  9  1  6  4
  -0.108681077611E-10  9  1  6  5
   0.467360412258E-07  9  1  6  6
   0.379194701558E-11  9  1  7  1
   0.501039478388E-11  9  1  7  2
  -0.579072095793E-10  9  1  7  3
   0.357428524227E-11  9  1  7  4
  -0.226857151904E-09  9  1  7  5
   0.101082092923E-09  9  1  7  6
   0.974052825651E-07  9  1  7  7
  -0.135731988239E-11  9  1  8  1
  -0.217130978370E-12  9  1  8  2
  -0.185448016640E-10  9  1  8  3
   0.119316253647E-12  9  1  8  4
  -0.397661379683E-09  9  1  8  5
   0.485217524236E-11  9  1  8  6
   0.196355399554E-09  9  1  8  7
   0.567279022634E-07  9  1  8  8
   0.556410724222E-12  9  1  9  1
   0.314298089112E-07  9  2  1  1
   0.761841295550E-08  9  2  2  1
  -0.162503577966E-06  9  2  2  2
   0.209256622577E-09  9  2  3  1
   0.217297138240E-08  9  2  3  2
   0.588798989428E-07  9  2  3  3
   0.381975086470E-11  9  2  4  1
   0.633671359803E-11  9  2  4  2
   0.339519188725E-10  9  2  4  3
   0.186718793735E-07  9  2  4  4
  -0.452955265013E-10  9  2  5  1
  -0.116195315761E-09  9  2  5  2
  -0.518169812299E-09  9  2  5  3
  -0.984511619445E-12  9  2  5  4
   0.467624667134E-07  9  2  5  5
  -0.163785963393E-11  9  2  6  1
   0.338532707628E-11  9  2  6  2
   0.185040859373E-09  9  2  6  3
  -0.723740064472E-09  9  2  6  4
  -0.529376048493E-11  9  2  6  5
  -0.686639613054E-08  9  2  6  6
   0.353621636978E-12  9  2  7  1
   0.620618062303E-11  9  2  7  2
   0.886037952707E-10  9  2  7  3
   0.215582581841E-10  9  2  7  4
  -0.500970648930E-09  9  2  7  5
   0.196846526744E-09  9  2  7  6
   0.553689233467E-07  9  2  7  7
  -0.439694986829E-12  9  2  8  1
   0.129966671787E-11  9  2  8  2
   0.132674114336E-10  9  2  8  3
  -0.600835743113E-13  9  2  8  4
  -0.247484553492E-09  9  2  8  5
   0.497967842793E-11  9  2  8  6
   0.305815349761E-09  9  2  8  7
   0.635305787873E-07  9  2  8  8
   0.244890817006E-12  9  2  9  1
   0.676482318916E-12  9  2  9  2
   0.363213784724E-05  9  3  1  1
   0.385930039060E-07  9  3  2  1
   0.450377572897E-05  9  3  2  2
  -0.235907239402E-07  9  3  3  1
   0.237656573172E-07  9  3  3  2
   0.246248167759E-04  9  3  3  3
  -0.492567842490E-09  9  3  4  1
   0.220859102475E-09  9  3  4  2
   0.593338373754E-07  9  3  4  3
  -0.225698549374E-05  9  3  4  4
  -0.431899826054E-08  9  3  5  1
  -0.210867902413E-08  9  3  5  2
  -0.641599441901E-07  9  3  5  3
  -0.363474345934E-10  9  3  5  4
  -0.100610914721E-05  9  3  5  5
  -0.139121600822E-09  9  3  6  1
  -0.239276352086E-08  9  3  6  2
   0.120102311795E-06  9  3  6  3
  -0.132720851947E-06  9  3  6  4
   0.229984790793E-08  9  3  6  5
  -0.808057999210E-05  9  3  6  6
  -0.506014916845E-10  9  3  7  1
   0.543661735347E-09  9  3  7  2
   0.870201642178E-07  9  3  7  3
  -0.394841944826E-08  9  3  7  4
  -0.691936677014E-08  9  3  7  5
  -0.537350677641E-07  9  3  7  6
  -0.156126243671E-04  9  3  7  7
   0.125584631923E-10  9  3  8  1
   0.162107028574E-10  9  3  8  2
   0.110351890707E-07  9  3  8  3
  -0.409315658877E-10  9  3  8  4
   0.165746948836E-07  9  3  8  5
  -0.714349705525E-09  9  3  8  6
  -0.569386470712E-08  9  3  8  7
  -0.905258314895E-06  9  3  8  8
  -0.242985031101E-10  9  3  9  1
  -0.478754978654E-11  9  3  9  2
   0.669986416555E-08  9  3  9  3
   0.198143255092E-06  9  4  1  1
   0.108718741606E-07  9  4  2  1
  -0.148200638436E-06  9  4  2  2
  -0.250191406905E-08  9  4  3  1
   0.207354349282E-08  9  4  3  2
   0.181664558267E-05  9  4  3  3
  -0.635789364819E-09  9  4  4  1
   0.643591842036E-08  9  4  4  2
  -0.333948246595E-07  9  4  4  3
  -0.123500818197E-04  9  4  4  4
   0.117551686037E-09  9  4  5  1
  -0.250389697742E-09  9  4  5  2
   0.668828888683E-08  9  4  5  3
  -0.364495985675E-09  9  4  5  4
   0.121038613951E-05  9  4  5  5
  -0.591891828554E-12  9  4  6  1
   0.637690899775E-09  9  4  6  2
  -0.212592740673E-07  9  4  6  3
  -0.954771517857E-06  9  4  6  4
  -0.961006304922E-09  9  4  6  5
   0.194294129375E-05  9  4  6  6
   0.361007488294E-10  9  4  7  1
   0.175026915936E-10  9  4  7  2
  -0.195908125766E-07  9  4  7  3
   0.933475003458E-08  9  4  7  4
   0.660788845706E-08  9  4  7  5
   0.246545287495E-07  9  4  7  6
   0.519685988034E-05  9  4  7  7
  -0.132049873670E-10  9  4  8  1
  -0.179907407691E-11  9  4  8  2
  -0.551086259366E-09  9  4  8  3
   0.124611498094E-09  9  4  8  4
  -0.524978226349E-08  9  4  8  5
   0.402583225624E-09  9  4  8  6
  -0.103204581640E-10  9  4  8  7
  -0.146047420095E-06  9  4  8  8
   0.968817781795E-11  9  4  9  1
   0.224513137107E-11  9  4  9  2
  -0.192792407774E-08  9  4  9  3
   0.173671015930E-08  9  4  9  4
   0.108677931319E-05  9  5  1  1
   0.136293065840E-07  9  5  2  1
   0.219345085057E-05  9  5  2  2
  -0.121088744106E-07  9  5  3  1
  -0.690287488283E-08  9  5  3  2
   0.759947231549E-05  9  5  3  3
  -0.128259950925E-09  9  5  4  1
   0.129670360787E-08  9  5  4  2
  -0.476098532527E-08  9  5  4  3
   0.371186805069E-05  9  5  4  4
   0.165342677355E-08  9  5  5  1
   0.367348463414E-09  9  5  5  2
   0.185526436399E-06  9  5  5  3
   0.467650900509E-09  9  5  5  4
  -0.159505047534E-04  9  5  5  5
   0.104702410882E-09  9  5  6  1
  -0.172509519759E-09  9  5  6  2
  -0.337766994922E-07  9  5  6  3
   0.589134435288E-07  9  5  6  4
  -0.148557825680E-07  9  5  6  5
   0.691283084838E-05  9  5  6  6
  -0.810099613557E-09  9  5  7  1
  -0.209228290734E-08  9  5  7  2
   0.578149312358E-07  9  5  7  3
  -0.115934166887E-07  9  5  7  4
  -0.474812102707E-06  9  5  7  5
   0.143768242429E-07  9  5  7  6
   0.420999977489E-04  9  5  7  7
  -0.259677598179E-09  9  5  8  1
  -0.995651082007E-10  9  5  8  2
  -0.909619463189E-08  9  5  8  3
  -0.307251760769E-10  9  5  8  4
  -0.517485252507E-06  9  5  8  5
   0.200389238094E-08  9  5  8  6
   0.186881602698E-06  9  5  8  7
   0.440338436258E-04  9  5  8  8
   0.141845644028E-09  9  5  9  1
   0.105411466307E-09  9  5  9  2
  -0.114740401639E-07  9  5  9  3
   0.477231076340E-08  9  5  9  4
   0.989121523689E-07  9  5  9  5
  -0.219812314330E-05  9  6  1  1
   0.475791108863E-07  9  6  2  1
  -0.563600295839E-05  9  6  2  2
  -0.110665652099E-08  9  6  3  1
   0.595740597906E-07  9  6  3  2
  -0.414149519407E-05  9  6  3  3
  -0.174480715477E-08  9  6  4  1
   0.230027553195E-08  9  6  4  2
   0.197464058733E-07  9  6  4  3
  -0.519564772220E-04  9  6  4  4
   0.281126084253E-08  9  6  5  1
  -0.285485576540E-09  9  6  5  2
   0.351183901864E-07  9  6  5  3
  -0.176292044219E-09  9  6  5  4
   0.736721600084E-05  9  6  5  5
   0.231824187313E-08  9  6  6  1
  -0.290356374805E-07  9  6  6  2
  -0.359014288865E-06  9  6  6  3