 &FCI NORB= 18,NELEC=18,MS2= 0,
  ORBSYM=1,1,1,1,1,1,1,1,1,1,1,1,1,1,1,1,1,1,
  ISYM=1
 &END
   0.692760457670      1  1  1  1
  -0.453607527603E-02  2  1  1  1
   0.273559764551E-02  2  1  2  1
   0.328709782999      2  2  1  1
  -0.453607500100E-02  2  2  2  1
   0.692760456324      2  2  2  2
   0.660434216149E-03  3  1  1  1
  -0.337765628582E-04  3  1  2  1
  -0.217427732349E-03  3  1  2  2
   0.633807655265E-05  3  1  3  1
  -0.608876425766E-03  3  2  1  1
  -0.525743970773E-04  3  2  2  1
  -0.585398192741E-04  3  2  2  2
   0.959410349427E-06  3  2  3  1
   0.246689526740E-04  3  2  3  2
   0.179884410314      3  3  1  1
   0.624331534012E-03  3  3  2  1
   0.206833815587      3  3  2  2
   0.646662358811E-03  3  3  3  1
  -0.286321409281E-03  3  3  3  2
   0.701010866208      3  3  3  3
  -0.158943035378E-03  4  1  1  1
   0.612339213230E-05  4  1  2  1
   0.544456681039E-05  4  1  2  2
  -0.791731161597E-06  4  1  3  1
  -0.259780790472E-06  4  1  3  2
   0.457531840661E-04  4  1  3  3
   0.375684215671E-06  4  1  4  1
   0.845507193008E-05  4  2  1  1
   0.315932777475E-05  4  2  2  1
  -0.135336032666E-03  4  2  2  2
  -0.173500905994E-06  4  2  3  1
  -0.389174049142E-06  4  2  3  2
   0.431449489765E-04  4  2  3  3
   0.494417724412E-07  4  2  4  1
   0.104822447906E-06  4  2  4  2
  -0.307612884946E-03  4  3  1  1
  -0.408174717200E-05  4  3  2  1
  -0.237032638756E-03  4  3  2  2
   0.332343147579E-05  4  3  3  1
   0.320005438347E-05  4  3  3  2
   0.211010046119E-03  4  3  3  3
  -0.819268762142E-06  4  3  4  1
  -0.491132421785E-06  4  3  4  2
   0.221036529465E-04  4  3  4  3
   0.138922645214      4  4  1  1
   0.130632970342E-03  4  4  2  1
   0.122640126827      4  4  2  2
  -0.419121995149E-04  4  4  3  1
  -0.267933672702E-03  4  4  3  2
   0.205654866104      4  4  3  3
  -0.151317286901E-03  4  4  4  1
  -0.118794781015E-04  4  4  4  2
   0.458161744028E-04  4  4  4  3
   0.692639234260      4  4  4  4
   0.628659857296E-05  5  1  1  1
   0.147677265281E-06  5  1  2  1
   0.102670676035E-05  5  1  2  2
   0.201413316334E-07  5  1  3  1
   0.185829583026E-09  5  1  3  2
  -0.318629921990E-05  5  1  3  3
  -0.284427735305E-08  5  1  4  1
  -0.163790948931E-08  5  1  4  2
  -0.166326099288E-08  5  1  4  3
  -0.174310185484E-05  5  1  4  4
   0.695365966195E-09  5  1  5  1
   0.647093852455E-05  5  2  1  1
  -0.326918209937E-06  5  2  2  1
   0.248321679505E-04  5  2  2  2
   0.722168864833E-08  5  2  3  1
  -0.773351537671E-07  5  2  3  2
  -0.160281953735E-04  5  2  3  3
  -0.580893006002E-08  5  2  4  1
  -0.123661911395E-07  5  2  4  2
  -0.561785395923E-08  5  2  4  3
  -0.134168481386E-05  5  2  4  4
   0.107758957822E-08  5  2  5  1
   0.711378047644E-08  5  2  5  2
   0.113940392396E-03  5  3  1  1
   0.200618459173E-05  5  3  2  1
   0.303023761680E-04  5  3  2  2
  -0.662590416222E-06  5  3  3  1
  -0.413045183386E-05  5  3  3  2
   0.168131010371E-03  5  3  3  3
  -0.795864774990E-07  5  3  4  1
   0.673334400443E-07  5  3  4  2
   0.431199444991E-06  5  3  4  3
   0.528018832197E-03  5  3  4  4
   0.548063105063E-07  5  3  5  1
   0.934258748177E-07  5  3  5  2
   0.246564921695E-04  5  3  5  3
   0.146289144326E-03  5  4  1  1
   0.716215251562E-06  5  4  2  1
   0.156457156618E-03  5  4  2  2
   0.281783488431E-06  5  4  3  1
  -0.585907543680E-06  5  4  3  2
   0.525506165500E-03  5  4  3  3
   0.506589261044E-07  5  4  4  1
   0.184159039144E-06  5  4  4  2
   0.116250326951E-05  5  4  4  3
   0.541287687826E-04  5  4  4  4
  -0.335202622397E-07  5  4  5  1
  -0.632136507072E-07  5  4  5  2
   0.495662659009E-06  5  4  5  3
   0.210251315787E-04  5  4  5  4
   0.102372379380      5  5  1  1
   0.121455740130E-03  5  5  2  1
   0.106647869041      5  5  2  2
   0.869582088348E-04  5  5  3  1
  -0.524507382069E-04  5  5  3  2
   0.206809090395      5  5  3  3
  -0.225184501125E-04  5  5  4  1
   0.847559822173E-05  5  5  4  2
   0.532577348207E-03  5  5  4  3
   0.204989409543      5  5  4  4
   0.636869065884E-05  5  5  5  1
   0.255010646798E-04  5  5  5  2
   0.224921466923E-03  5  5  5  3
   0.181853419833E-03  5  5  5  4
   0.701153804840      5  5  5  5
   0.183223141299E-05  6  1  1  1
   0.232980915187E-07  6  1  2  1
   0.965991201028E-06  6  1  2  2
   0.343267102024E-08  6  1  3  1
  -0.653984135999E-09  6  1  3  2
  -0.643088743648E-06  6  1  3  3
  -0.548271347397E-09  6  1  4  1
  -0.383795459405E-09  6  1  4  2
  -0.196603688803E-08  6  1  4  3
  -0.130003135749E-05  6  1  4  4
   0.112012432409E-09  6  1  5  1
   0.620972155003E-10  6  1  5  2
  -0.252604137645E-08  6  1  5  3
  -0.219593932091E-08  6  1  5  4
  -0.478682637152E-06  6  1  5  5
   0.879144199660E-10  6  1  6  1
   0.284180147639E-06  6  2  1  1
   0.529241020794E-07  6  2  2  1
  -0.378588561655E-06  6  2  2  2
  -0.175432724833E-09  6  2  3  1
  -0.128178299918E-07  6  2  3  2
  -0.130529440256E-06  6  2  3  3
  -0.232605056380E-10  6  2  4  1
   0.238617242705E-09  6  2  4  2
  -0.137060151060E-08  6  2  4  3
   0.124755195172E-06  6  2  4  4
   0.475613544798E-12  6  2  5  1
   0.591116168011E-10  6  2  5  2
   0.826643642915E-09  6  2  5  3
  -0.116421680834E-08  6  2  5  4
  -0.194270583540E-06  6  2  5  5
   0.915557284110E-11  6  2  6  1
   0.132826446283E-10  6  2  6  2
  -0.126296169697E-04  6  3  1  1
  -0.112978228254E-06  6  3  2  1
  -0.231054948251E-04  6  3  2  2
  -0.172928371420E-06  6  3  3  1
  -0.274642679722E-07  6  3  3  2
  -0.128834750821E-03  6  3  3  3
  -0.293456528221E-07  6  3  4  1
  -0.506909455581E-08  6  3  4  2
   0.301288709303E-06  6  3  4  3
   0.430815224545E-04  6  3  4  4
   0.231022725445E-09  6  3  5  1
   0.297739062136E-08  6  3  5  2
   0.308160904586E-06  6  3  5  3
   0.176105234378E-06  6  3  5  4
   0.404101714868E-04  6  3  5  5
  -0.107282895750E-08  6  3  6  1
  -0.211293458824E-09  6  3  6  2
   0.940486246237E-07  6  3  6  3
   0.193832800542E-04  6  4  1  1
   0.646812370684E-06  6  4  2  1
   0.589807497392E-04  6  4  2  2
   0.265182868920E-06  6  4  3  1
  -0.110742223170E-06  6  4  3  2
   0.275206301658E-03  6  4  3  3
  -0.243829924570E-06  6  4  4  1
   0.655894255213E-07  6  4  4  2
   0.411600021442E-05  6  4  4  3
  -0.672470439500E-04  6  4  4  4
   0.120270925991E-08  6  4  5  1
   0.625726782035E-08  6  4  5  2
   0.162834900189E-05  6  4  5  3
  -0.463651707179E-06  6  4  5  4
   0.541017294559E-03  6  4  5  5
  -0.206981019291E-07  6  4  6  1
  -0.745740911521E-08  6  4  6  2
   0.501359862509E-06  6  4  6  3
   0.252748802527E-04  6  4  6  4
   0.100221095379E-03  6  5  1  1
   0.288743023578E-06  6  5  2  1
   0.836723466719E-04  6  5  2  2
   0.688909497014E-07  6  5  3  1
  -0.433730997666E-06  6  5  3  2
   0.232485696714E-03  6  5  3  3
  -0.940818848184E-07  6  5  4  1
   0.103032183027E-07  6  5  4  2
   0.135091356461E-05  6  5  4  3
   0.444321502934E-03  6  5  4  4
  -0.859760363938E-08  6  5  5  1
  -0.481180469644E-07  6  5  5  2
   0.298253199198E-05  6  5  5  3
   0.105915519829E-06  6  5  5  4
  -0.181853548706E-03  6  5  5  5
  -0.898542173238E-08  6  5  6  1
   0.874154274863E-09  6  5  6  2
   0.455335779670E-06  6  5  6  3
   0.463658684172E-06  6  5  6  4
   0.210251248989E-04  6  5  6  5
   0.849871880347E-01  6  6  1  1
   0.523769564322E-04  6  6  2  1
   0.808162919858E-01  6  6  2  2
   0.639294691009E-05  6  6  3  1
  -0.713429130457E-04  6  6  3  2
   0.122166577530      6  6  3  3
  -0.245367882521E-04  6  6  4  1
  -0.793003125363E-06  6  6  4  2
   0.219765415892E-03  6  6  4  3
   0.205227124251      6  6  4  4
   0.817351009595E-06  6  6  5  1
   0.392978890650E-05  6  6  5  2
   0.251620401458E-03  6  6  5  3
  -0.444321521468E-03  6  6  5  4
   0.204989408633      6  6  5  5
   0.233779185599E-05  6  6  6  1
   0.645741378540E-06  6  6  6  2
  -0.141060025571E-04  6  6  6  3
  -0.672471164385E-04  6  6  6  4
  -0.541285999055E-04  6  6  6  5
   0.692639234650      6  6  6  6
  -0.265120763994E-06  7  1  1  1
   0.762176442901E-08  7  1  2  1
  -0.432737628041E-08  7  1  2  2
  -0.100431450722E-08  7  1  3  1
  -0.712082131531E-10  7  1  3  2
   0.405965572750E-07  7  1  3  3
   0.228211209685E-09  7  1  4  1
   0.335822042712E-10  7  1  4  2
  -0.267016839089E-09  7  1  4  3
   0.572893861494E-07  7  1  4  4
  -0.393018432330E-11  7  1  5  1
  -0.437895227948E-11  7  1  5  2
  -0.400336174427E-10  7  1  5  3
  -0.242222577415E-09  7  1  5  4
   0.951481240913E-07  7  1  5  5
  -0.122451243972E-11  7  1  6  1
  -0.268272328056E-12  7  1  6  2
   0.178898938681E-10  7  1  6  3
   0.392035901335E-09  7  1  6  4
  -0.199380736929E-09  7  1  6  5
   0.565888273382E-07  7  1  6  6
   0.546282599965E-12  7  1  7  1
   0.618709261681E-07  7  2  1  1
   0.711736719099E-08  7  2  2  1
  -0.756375003552E-07  7  2  2  2
  -0.152622362231E-09  7  2  3  1
  -0.262553602978E-08  7  2  3  2
   0.248649901643E-07  7  2  3  3
   0.351343044872E-10  7  2  4  1
   0.832068153985E-10  7  2  4  2
  -0.610859150918E-09  7  2  4  3
   0.328257857364E-07  7  2  4  4
   0.101972733627E-11  7  2  5  1
   0.548372235883E-11  7  2  5  2
   0.340757633626E-09  7  2  5  3
  -0.577170030696E-09  7  2  5  4
   0.207433724781E-07  7  2  5  5
  -0.152123792511E-12  7  2  6  1
   0.166370799450E-11  7  2  6  2
  -0.158007266432E-10  7  2  6  3
   0.193100366154E-09  7  2  6  4
  -0.328240083852E-09  7  2  6  5
   0.641150588373E-07  7  2  6  6
   0.166175074406E-12  7  2  7  1
   0.771300892795E-12  7  2  7  2
  -0.366479318110E-05  7  3  1  1
  -0.365132812636E-07  7  3  2  1
  -0.469820027292E-05  7  3  2  2
  -0.244655912974E-07  7  3  3  1
   0.229162517669E-07  7  3  3  2
  -0.254298152707E-04  7  3  3  3
  -0.455888481414E-08  7  3  4  1
  -0.213314050404E-08  7  3  4  2
   0.627079549908E-07  7  3  4  3
   0.134981258528E-05  7  3  4  4
  -0.224533842321E-10  7  3  5  1
   0.709800730896E-09  7  3  5  2
  -0.869565240008E-07  7  3  5  3
   0.571735440316E-08  7  3  5  4
   0.158388228600E-04  7  3  5  5
  -0.160447595818E-10  7  3  6  1
  -0.189523894361E-10  7  3  6  2
   0.117384819064E-07  7  3  6  3
   0.185157841058E-07  7  3  6  4
  -0.571719447389E-08  7  3  6  5
   0.134980884085E-05  7  3  6  6
   0.252605981373E-10  7  3  7  1
  -0.664609670868E-11  7  3  7  2
   0.709597649520E-08  7  3  7  3
  -0.110938971216E-05  7  4  1  1
  -0.125010696904E-07  7  4  2  1
  -0.214894959879E-05  7  4  2  2
  -0.111192352516E-07  7  4  3  1
  -0.496307448014E-08  7  4  3  2
  -0.730726582370E-05  7  4  3  3
   0.196868836490E-08  7  4  4  1
   0.659014863747E-09  7  4  4  2
  -0.179297049199E-06  7  4  4  3
   0.141060281121E-04  7  4  4  4
  -0.819299088948E-09  7  4  5  1
  -0.207098742487E-08  7  4  5  2
  -0.632583789217E-07  7  4  5  3
   0.455334015508E-06  7  4  5  4
  -0.404101600830E-04  7  4  5  5
   0.258471597000E-09  7  4  6  1
   0.978207321035E-10  7  4  6  2
  -0.872637337818E-08  7  4  6  3
  -0.501357794644E-06  7  4  6  4
   0.176105219795E-06  7  4  6  5
  -0.430815307638E-04  7  4  6  6
  -0.138417331860E-09  7  4  7  1
  -0.718355601064E-10  7  4  7  2
  -0.117384886526E-07  7  4  7  3
   0.940484544065E-07  7  4  7  4
   0.300793402260E-04  7  5  1  1
   0.165173735284E-06  7  5  2  1
   0.780869969238E-05  7  5  2  2
  -0.214949437208E-07  7  5  3  1
  -0.351476022106E-06  7  5  3  2
   0.408584141064E-04  7  5  3  3
  -0.687040535045E-07  7  5  4  1
  -0.400980486630E-08  7  5  4  2
   0.548682661329E-06  7  5  4  3
   0.251620508131E-03  7  5  4  4
   0.134764152231E-07  7  5  5  1
   0.199861593211E-07  7  5  5  2
   0.408360853237E-05  7  5  5  3
  -0.298254313280E-05  7  5  5  4
   0.224922064889E-03  7  5  5  5
  -0.520896890588E-09  7  5  6  1
  -0.152292735312E-09  7  5  6  2
   0.632586942548E-07  7  5  6  3
   0.162834102465E-05  7  5  6  4
  -0.495658824333E-06  7  5  6  5
   0.528018838811E-03  7  5  6  6
   0.674566327117E-09  7  5  7  1
   0.256627830168E-08  7  5  7  2
  -0.869562556123E-07  7  5  7  3
  -0.308160619254E-06  7  5  7  4
   0.246565060247E-04  7  5  7  5
  -0.633600734383E-04  7  6  1  1
  -0.139486019848E-06  7  6  2  1
  -0.687213226594E-04  7  6  2  2
  -0.647081200684E-07  7  6  3  1
   0.557140322089E-07  7  6  3  2
  -0.158994563620E-03  7  6  3  3
   0.503946374903E-07  7  6  4  1
  -0.164656911437E-08  7  6  4  2
  -0.631587558479E-06  7  6  4  3
  -0.219765465241E-03  7  6  4  4
  -0.668405027883E-08  7  6  5  1
  -0.218394776702E-07  7  6  5  2
  -0.548688258500E-06  7  6  5  3
   0.135091406777E-05  7  6  5  4
  -0.532577385407E-03  7  6  5  5
   0.688926006027E-08  7  6  6  1
   0.195651181449E-08  7  6  6  2
  -0.179296851183E-06  7  6  6  3
  -0.411598733949E-05  7  6  6  4
   0.116251771876E-05  7  6  6  5
  -0.458163335798E-04  7  6  6  6
  -0.246643409342E-09  7  6  7  1
  -0.529501949495E-10  7  6  7  2
  -0.627079479996E-07  7  6  7  3
   0.301288747449E-06  7  6  7  4
  -0.431185675072E-06  7  6  7  5
   0.221036668104E-04  7  6  7  6
   0.702040420988E-01  7  7  1  1
   0.394456766601E-04  7  7  2  1
   0.715351607887E-01  7  7  2  2
   0.176120790437E-04  7  7  3  1
  -0.126799434052E-04  7  7  3  2
   0.106648866151      7  7  3  3
  -0.848965223291E-05  7  7  4  1
   0.261634831107E-05  7  7  4  2
   0.158994530623E-03  7  7  4  3
   0.122166578462      7  7  4  4
   0.128849081831E-05  7  7  5  1
   0.470057426224E-05  7  7  5  2
   0.408582906399E-04  7  7  5  3
  -0.232485743763E-03  7  7  5  4
   0.206809091166      7  7  5  5
   0.670638520719E-07  7  7  6  1
  -0.485142507143E-07  7  7  6  2
   0.730729060385E-05  7  7  6  3
   0.275206309837E-03  7  7  6  4
  -0.525506163860E-03  7  7  6  5
   0.205654868031      7  7  6  6
  -0.257847724213E-06  7  7  7  1
  -0.630218401046E-07  7  7  7  2
  -0.254298098195E-04  7  7  7  3
   0.128834718733E-03  7  7  7  4
   0.168130383527E-03  7  7  7  5
  -0.211009896820E-03  7  7  7  6
   0.701010867043      7  7  7  7
  -0.637949276326E-08  8  1  1  1
   0.332439046706E-10  8  1  2  1
  -0.221162903210E-08  8  1  2  2
  -0.139339358044E-10  8  1  3  1
   0.975785167812E-13  8  1  3  2
   0.137799143105E-08  8  1  3  3
   0.438887277727E-11  8  1  4  1
   0.881580210613E-12  8  1  4  2
  -0.141951415553E-11  8  1  4  3
   0.132468789586E-08  8  1  4  4
  -0.199043159752E-12  8  1  5  1
  -0.168961021518E-12  8  1  5  2
   0.247650511523E-11  8  1  5  3
  -0.164408092926E-11  8  1  5  4
   0.769508384849E-09  8  1  5  5
  -0.894972906578E-13  8  1  6  1
  -0.377872996769E-14  8  1  6  2
   0.461587843358E-12  8  1  6  3
   0.117101014546E-10  8  1  6  4
   0.134852591095E-11  8  1  6  5
   0.138977229657E-08  8  1  6  6
   0.484105834465E-14  8  1  7  1
   0.567232996862E-15  8  1  7  2
  -0.737576592087E-13  8  1  7  3
  -0.445400007229E-12  8  1  7  4
   0.257661311742E-11  8  1  7  5
   0.186488253321E-11  8  1  7  6
   0.150890863511E-08  8  1  7  7
   0.343775089854E-15  8  1  8  1
  -0.113284543956E-08  8  2  1  1
  -0.401820151313E-10  8  2  2  1
  -0.315907276177E-08  8  2  2  2
  -0.180472298683E-11  8  2  3  1
   0.231703439531E-10  8  2  3  2
   0.848944150597E-09  8  2  3  3
   0.452403121931E-12  8  2  4  1
   0.134968796537E-11  8  2  4  2
  -0.224113890308E-12  8  2  4  3
   0.550569780384E-09  8  2  4  4
  -0.402914638338E-13  8  2  5  1
  -0.480064920731E-12  8  2  5  2
  -0.192347501102E-11  8  2  5  3
   0.746246401497E-12  8  2  5  4
   0.406288037319E-09  8  2  5  5
  -0.115064507503E-13  8  2  6  1
  -0.182505420379E-13  8  2  6  2
   0.147551261613E-12  8  2  6  3
   0.564372618812E-11  8  2  6  4
  -0.152207722671E-11  8  2  6  5
   0.805658202648E-09  8  2  6  6
   0.954802678102E-15  8  2  7  1
  -0.298334442821E-14  8  2  7  2
   0.234837278748E-13  8  2  7  3
  -0.212040477340E-12  8  2  7  4
  -0.400350009153E-11  8  2  7  5
  -0.126525457125E-11  8  2  7  6
   0.744200526241E-09  8  2  7  7
   0.123151900203E-15  8  2  8  1
   0.146586974412E-15  8  2  8  2
   0.237638870443E-07  8  3  1  1
   0.161425100023E-09  8  3  2  1
   0.429316392836E-07  8  3  2  2
   0.378082842549E-09  8  3  3  1
   0.934013455792E-10  8  3  3  2
   0.257913455281E-06  8  3  3  3
   0.415348061702E-10  8  3  4  1
   0.701947484914E-11  8  3  4  2
  -0.246604713303E-09  8  3  4  3
  -0.565763780440E-07  8  3  4  4
  -0.192578610420E-11  8  3  5  1
  -0.884329457213E-11  8  3  5  2
  -0.674493983328E-09  8  3  5  3
  -0.199335531861E-09  8  3  5  4
  -0.951369375615E-07  8  3  5  5
   0.517110408961E-12  8  3  6  1
   0.928078506924E-13  8  3  6  2
  -0.138433979917E-09  8  3  6  3
  -0.392027024140E-09  8  3  6  4
  -0.242203040689E-09  8  3  6  5
  -0.572909703466E-07  8  3  6  6
  -0.522233267409E-13  8  3  7  1
   0.235379380165E-13  8  3  7  2
  -0.252645342697E-10  8  3  7  3
   0.178889710865E-10  8  3  7  4
   0.400191923498E-10  8  3  7  5
  -0.267055343742E-09  8  3  7  6
  -0.406017684228E-07  8  3  7  7
  -0.454990113088E-14  8  3  8  1
  -0.197317105040E-14  8  3  8  2
   0.546296289823E-12  8  3  8  3
   0.189433891933E-06  8  4  1  1
  -0.293411338844E-09  8  4  2  1
   0.101491012655E-06  8  4  2  2
  -0.527670145914E-09  8  4  3  1
  -0.777444502046E-09  8  4  3  2
   0.670266901300E-07  8  4  3  3
  -0.340597191950E-09  8  4  4  1
  -0.690109820273E-10  8  4  4  2
  -0.688914688571E-08  8  4  4  3
   0.233762040189E-05  8  4  4  4
  -0.125001711063E-10  8  4  5  1
  -0.252477279571E-10  8  4  5  2
  -0.521066462822E-09  8  4  5  3
   0.898530143786E-08  8  4  5  4
  -0.478713486426E-06  8  4  5  5
   0.483619668492E-11  8  4  6  1
   0.362655185062E-11  8  4  6  2
  -0.258486589694E-09  8  4  6  3
  -0.206980572692E-07  8  4  6  4
   0.219575811855E-08  8  4  6  5
  -0.130004980933E-05  8  4  6  6
  -0.517236438830E-12  8  4  7  1
  -0.388285744627E-12  8  4  7  2
  -0.160465334086E-10  8  4  7  3
   0.107282436881E-08  8  4  7  4
  -0.252608571556E-08  8  4  7  5
   0.196618373666E-08  8  4  7  6
  -0.643073136247E-06  8  4  7  7
  -0.874763827903E-13  8  4  8  1
  -0.598384004923E-13  8  4  8  2
   0.122447634558E-11  8  4  8  3
   0.879139675107E-10  8  4  8  4
  -0.295697961025E-06  8  5  1  1
  -0.148942169625E-08  8  5  2  1
  -0.317632019936E-06  8  5  2  2
  -0.111555039979E-08  8  5  3  1
   0.124826378069E-08  8  5  3  2
  -0.128851183595E-05  8  5  3  3
   0.195689528365E-09  8  5  4  1
  -0.133259167826E-09  8  5  4  2
  -0.668408176148E-08  8  5  4  3
  -0.817372784734E-06  8  5  4  4
  -0.823036824227E-10  8  5  5  1
  -0.237950513274E-09  8  5  5  2
  -0.134760242409E-07  8  5  5  3
  -0.859754007087E-08  8  5  5  4
  -0.636879172458E-05  8  5  5  5
   0.125008489136E-10  8  5  6  1
   0.518355095341E-12  8  5  6  2
  -0.819311776200E-09  8  5  6  3
  -0.120282611049E-08  8  5  6  4
  -0.335202556916E-07  8  5  6  5
   0.174309172345E-05  8  5  6  6
  -0.192575021391E-11  8  5  7  1
  -0.485688323992E-11  8  5  7  2
   0.224508167878E-10  8  5  7  3
   0.231029225009E-09  8  5  7  4
  -0.548063954487E-07  8  5  7  5
  -0.166333938261E-08  8  5  7  6
   0.318629713826E-05  8  5  7  7
   0.191700587611E-12  8  5  8  1
   0.167172820475E-12  8  5  8  2
  -0.392963692527E-11  8  5  8  3
  -0.112013490200E-09  8  5  8  4
   0.695369015525E-09  8  5  8  5
  -0.355561717149E-05  8  6  1  1
  -0.995047849640E-08  8  6  2  1
  -0.318142621995E-05  8  6  2  2
  -0.162637516547E-08  8  6  3  1
   0.117143184575E-07  8  6  3  2
  -0.848961992276E-05  8  6  3  3
   0.670141699702E-08  8  6  4  1
   0.894171692981E-09  8  6  4  2
  -0.503927250964E-07  8  6  4  3
  -0.245367316249E-04  8  6  4  4
  -0.195663394662E-09  8  6  5  1
  -0.839597367111E-09  8  6  5  2
  -0.687006637032E-07  8  6  5  3
   0.940809367666E-07  8  6  5  4
  -0.225183989821E-04  8  6  5  5
  -0.340638577143E-09  8  6  6  1
  -0.698166216093E-10  8  6  6  2
  -0.196871137082E-08  8  6  6  3
  -0.243829268498E-06  8  6  6  4
  -0.506591641788E-07  8  6  6  5
  -0.151317094145E-03  8  6  6  6
  -0.415295573297E-10  8  6  7  1
  -0.166979602412E-10  8  6  7  2
  -0.455886991723E-08  8  6  7  3
   0.293456761983E-07  8  6  7  4
  -0.795854132296E-07  8  6  7  5
   0.819266888584E-06  8  6  7  6
   0.457531933842E-04  8  6  7  7
   0.420183406226E-11  8  6  8  1
   0.137321730128E-11  8  6  8  2
  -0.228197396563E-09  8  6  8  3
  -0.548318122936E-09  8  6  8  4
   0.284424524002E-08  8  6  8  5
   0.375685163777E-06  8  6  8  6
  -0.405594712623E-05  8  7  1  1
  -0.103605585699E-07  8  7  2  1
  -0.605085141995E-05  8  7  2  2
  -0.140552478586E-07  8  7  3  1
  -0.945459341623E-08  8  7  3  2
  -0.176121047851E-04  8  7  3  3
   0.162649933629E-08  8  7  4  1
  -0.116024434748E-08  8  7  4  2
  -0.647033666882E-07  8  7  4  3
  -0.639297963691E-05  8  7  4  4
  -0.111556199913E-08  8  7  5  1
  -0.405115092317E-08  8  7  5  2
   0.214983574439E-07  8  7  5  3
   0.688925351859E-07  8  7  5  4
  -0.869582794547E-04  8  7  5  5
   0.527674986919E-09  8  7  6  1
   0.193670137992E-09  8  7  6  2
  -0.111190975795E-07  8  7  6  3
  -0.265185233234E-06  8  7  6  4
   0.281780386058E-06  8  7  6  5
   0.419121506870E-04  8  7  6  6
   0.377989243585E-09  8  7  7  1
   0.196144353115E-09  8  7  7  2
   0.244656281801E-07  8  7  7  3
  -0.172928958252E-06  8  7  7  4
   0.662581067764E-06  8  7  7  5
   0.332343682425E-05  8  7  7  6
  -0.646662740444E-03  8  7  7  7
   0.131410849031E-10  8  7  8  1
   0.745240132977E-11  8  7  8  2
  -0.100425417604E-08  8  7  8  3
  -0.343287797955E-08  8  7  8  4
   0.201412750938E-07  8  7  8  5
   0.791729956034E-06  8  7  8  6
   0.633807895378E-05  8  7  8  7
   0.537677312339E-01  8  8  1  1
   0.171656599551E-04  8  8  2  1
   0.531990074151E-01  8  8  2  2
   0.405593704589E-05  8  8  3  1
  -0.140519047757E-04  8  8  3  2
   0.702040419967E-01  8  8  3  3
  -0.355563313964E-05  8  8  4  1
   0.138858438936E-05  8  8  4  2
   0.633600798345E-04  8  8  4  3
   0.849871885012E-01  8  8  4  4
   0.295689615630E-06  8  8  5  1
   0.118327266490E-05  8  8  5  2
   0.300792925100E-04  8  8  5  3
  -0.100221112929E-03  8  8  5  4
   0.102372379302      8  8  5  5
   0.189459726516E-06  8  8  6  1
   0.538248356824E-07  8  8  6  2
   0.110939031877E-05  8  8  6  3
   0.193832669882E-04  8  8  6  4
  -0.146289136567E-03  8  8  6  5
   0.138922646484      8  8  6  6
  -0.237534192956E-07  8  8  7  1
   0.485147063307E-08  8  8  7  2
  -0.366478681317E-05  8  8  7  3
   0.126296359956E-04  8  8  7  4
   0.113940319739E-03  8  8  7  5
   0.307612916054E-03  8  8  7  6
   0.179884409348      8  8  7  7
  -0.561126509498E-08  8  8  8  1
  -0.323493398816E-08  8  8  8  2
   0.265066200128E-06  8  8  8  3
   0.183240979684E-05  8  8  8  4
  -0.628649456984E-05  8  8  8  5
  -0.158943230235E-03  8  8  8  6
  -0.660433784066E-03  8  8  8  7
   0.692760457066      8  8  8  8
  -0.333589554725E-08  9  1  1  1
  -0.351611778352E-10  9  1  2  1
  -0.121223338431E-08  9  1  2  2
  -0.759534348182E-11  9  1  3  1
   0.103266911909E-11  9  1  3  2
   0.728272924140E-09  9  1  3  3
   0.140432384123E-11  9  1  4  1
   0.535815372128E-12  9  1  4  2
   0.131584099874E-11  9  1  4  3
   0.797270971519E-09  9  1  4  4
  -0.167838818468E-12  9  1  5  1
  -0.124302142690E-12  9  1  5  2
  -0.401721162750E-11  9  1  5  3
   0.148779007905E-11  9  1  5  4
   0.407133437304E-09  9  1  5  5
  -0.600656475470E-13  9  1  6  1
  -0.181654215531E-14  9  1  6  2
   0.214262135735E-12  9  1  6  3
   0.565011966197E-11  9  1  6  4
  -0.785336328347E-12  9  1  6  5
   0.556421955709E-09  9  1  6  6
   0.201584635346E-14  9  1  7  1
  -0.140942456360E-15  9  1  7  2
   0.232591397836E-13  9  1  7  3
  -0.143631960536E-12  9  1  7  4
  -0.192461060039E-11  9  1  7  5
   0.266536401187E-12  9  1  7  6
   0.870575478025E-09  9  1  7  7
   0.126465788551E-15  9  1  8  1
   0.284431953233E-16  9  1  8  2
  -0.963830328127E-15  9  1  8  3
  -0.113625613639E-13  9  1  8  4
   0.399663200954E-13  9  1  8  5
   0.459158092961E-12  9  1  8  6
   0.185879599010E-11  9  1  8  7
  -0.109681249415E-08  9  1  8  8
   0.146047909540E-15  9  1  9  1
  -0.184151034409E-08  9  2  1  1
   0.265526669831E-10  9  2  2  1
  -0.552379141433E-08  9  2  2  2
  -0.150435827406E-11  9  2  3  1
   0.192475163920E-10  9  2  3  2
   0.207930544801E-08  9  2  3  3
   0.772973957498E-12  9  2  4  1
   0.225878181802E-11  9  2  4  2
   0.269541877409E-11  9  2  4  3
   0.846242544583E-09  9  2  4  4
  -0.851150903839E-13  9  2  5  1
  -0.905301101947E-12  9  2  5  2
  -0.766903410677E-11  9  2  5  3
   0.274034888747E-11  9  2  5  4
   0.298318021215E-09  9  2  5  5
  -0.150269425952E-13  9  2  6  1
  -0.170960693651E-13  9  2  6  2
  -0.844519131766E-13  9  2  6  3
   0.493456543017E-11  9  2  6  4
  -0.238832582681E-11  9  2  6  5
   0.784960049535E-09  9  2  6  6
   0.103811153000E-14  9  2  7  1
  -0.210966616451E-14  9  2  7  2
  -0.571651648254E-15  9  2  7  3
   0.473262935318E-13  9  2  7  4
  -0.769769076523E-11  9  2  7  5
  -0.313502920399E-11  9  2  7  6
   0.188066504378E-08  9  2  7  7
   0.749330719675E-16  9  2  8  1
   0.122755032435E-15  9  2  8  2
  -0.984807556174E-15  9  2  8  3
  -0.162914959837E-13  9  2  8  4
   0.861637405327E-13  9  2  8  5
   0.763068739207E-12  9  2  8  6
   0.120175934753E-11  9  2  8  7
  -0.224604015260E-08  9  2  8  8
   0.125014840201E-15  9  2  9  1
   0.343389075499E-15  9  2  9  2
  -0.485134878871E-08  9  3  1  1
  -0.164524075702E-09  9  3  2  1
   0.916225941033E-08  9  3  2  2
   0.196100299462E-09  9  3  3  1
   0.467535915328E-09  9  3  3  2
   0.630161989323E-07  9  3  3  3
   0.166989346084E-10  9  3  4  1
  -0.477639440843E-11  9  3  4  2
  -0.529999684373E-10  9  3  4  3
  -0.641166769790E-07  9  3  4  4
  -0.485704067410E-11  9  3  5  1
  -0.740194355667E-11  9  3  5  2
  -0.256628354307E-08  9  3  5  3
  -0.328229782729E-09  9  3  5  4
  -0.207435621397E-07  9  3  5  5
   0.388302873942E-12  9  3  6  1
  -0.121541727741E-12  9  3  6  2
  -0.718321410098E-10  9  3  6  3
  -0.193089772823E-09  9  3  6  4
  -0.577159059521E-09  9  3  6  5
  -0.328258841257E-07  9  3  6  6
   0.235419506017E-13  9  3  7  1
  -0.265441037264E-13  9  3  7  2
   0.664724011227E-11  9  3  7  3
  -0.158020399860E-10  9  3  7  4
  -0.340745669834E-09  9  3  7  5
  -0.610848789229E-09  9  3  7  6
  -0.248671623215E-07  9  3  7  7
  -0.635086873748E-15  9  3  8  1
   0.139265024115E-15  9  3  8  2
   0.166160810151E-12  9  3  8  3
   0.152089458643E-12  9  3  8  4
   0.101982665339E-11  9  3  8  5
  -0.351332208007E-10  9  3  8  6
  -0.152600897970E-09  9  3  8  7
  -0.618737273517E-07  9  3  8  8
   0.297639256844E-14  9  3  9  1
   0.202289422701E-14  9  3  9  2
   0.771336224225E-12  9  3  9  3
   0.538828208302E-07  9  4  1  1
  -0.226510132451E-09  9  4  2  1
   0.175097002209E-07  9  4  2  2
  -0.193697143453E-09  9  4  3  1
  -0.166607417610E-09  9  4  3  2
  -0.484228158178E-07  9  4  3  3
  -0.699182698686E-10  9  4  4  1
  -0.538674937440E-10  9  4  4  2
  -0.195659768248E-08  9  4  4  3
   0.646158527088E-06  9  4  4  4
  -0.519757277803E-12  9  4  5  1
  -0.902117670862E-12  9  4  5  2
  -0.151931826743E-09  9  4  5  3
  -0.874041890735E-09  9  4  5  4
  -0.194202410567E-06  9  4  5  5
   0.362551986941E-11  9  4  6  1
   0.218110817545E-11  9  4  6  2
  -0.977897856559E-10  9  4  6  3
  -0.745744534305E-08  9  4  6  4
   0.116463139980E-08  9  4  6  5
   0.124810581650E-06  9  4  6  6
  -0.927507890803E-13  9  4  7  1
   0.121563597122E-12  9  4  7  2
  -0.189481541405E-10  9  4  7  3
   0.211284281626E-09  9  4  7  4
   0.826798771187E-09  9  4  7  5
   0.137028343611E-08  9  4  7  6
  -0.130588922169E-06  9  4  7  7
  -0.350060259969E-14  9  4  8  1
  -0.184846628243E-14  9  4  8  2
   0.268206750398E-12  9  4  8  3
   0.915628710566E-11  9  4  8  4
  -0.475364998661E-12  9  4  8  5
  -0.232752362790E-10  9  4  8  6
   0.175294152696E-09  9  4  8  7
   0.284009762380E-06  9  4  8  8
  -0.181880891180E-13  9  4  9  1
  -0.165632722227E-13  9  4  9  2
  -0.166389783402E-11  9  4  9  3
   0.132839439200E-10  9  4  9  4
  -0.118326954399E-05  9  5  1  1
  -0.476878676367E-08  9  5  2  1
  -0.120243677091E-05  9  5  2  2
  -0.405112453198E-08  9  5  3  1
   0.409326650550E-08  9  5  3  2
  -0.470056940174E-05  9  5  3  3
   0.839607725659E-09  9  5  4  1
  -0.306524991756E-09  9  5  4  2
  -0.218395753008E-07  9  5  4  3
  -0.392978435261E-05  9  5  4  4
  -0.237946846211E-09  9  5  5  1
  -0.978967708241E-09  9  5  5  2
  -0.199860428649E-07  9  5  5  3
  -0.481182450022E-07  9  5  5  4
  -0.255010399889E-04  9  5  5  5
   0.252482418627E-10  9  5  6  1
   0.900311478994E-12  9  5  6  2
  -0.207098380770E-08  9  5  6  3
  -0.625716660904E-08  9  5  6  4
  -0.632136829690E-07  9  5  6  5
   0.134168773252E-05  9  5  6  6
  -0.884238304051E-11  9  5  7  1
  -0.740130409762E-11  9  5  7  2
  -0.709797810030E-09  9  5  7  3
   0.297739327867E-08  9  5  7  4
  -0.934257243276E-07  9  5  7  5
  -0.561782506382E-08  9  5  7  6
   0.160281927496E-04  9  5  7  7
   0.162560844900E-12  9  5  8  1
   0.123092199608E-12  9  5  8  2
  -0.437874252000E-11  9  5  8  3
  -0.620983858048E-10  9  5  8  4
   0.107756160170E-08  9  5  8  5
   0.580898444874E-08  9  5  8  6
   0.722162001541E-08  9  5  8  7
  -0.647095281507E-05  9  5  8  8
   0.475969526938E-12  9  5  9  1
   0.940952168853E-12  9  5  9  2
   0.548530376046E-11  9  5  9  3
  -0.590966928316E-10  9  5  9  4
   0.711379581626E-08  9  5  9  5
   0.138858706436E-05  9  6  1  1
   0.212326286125E-08  9  6  2  1
   0.151593178314E-05  9  6  2  2
   0.116013811526E-08  9  6  3  1
   0.896413467107E-09  9  6  3  2
   0.261632973191E-05  9  6  3  3
   0.894187376162E-09  9  6  4  1
   0.469639871214E-09  9  6  4  2
   0.164649860634E-08  9  6  4  3
  -0.792994685459E-06  9  6  4  4
   0.133250625157E-09  9  6  5  1
   0.306527283674E-09  9  6  5  2
  -0.401084535963E-08  9  6  5  3
  -0.103030287688E-07  9  6  5  4
   0.847560452920E-05  9  6  5  5
  -0.690071629158E-10  9  6  6  1
  -0.538651186371E-10  9  6  6  2
  -0.659004064114E-09  9  6  6  3