 &FCI NORB= 26,NELEC=  8,MS2= 0,
  ORBSYM=1,1,1,1,1,1,2,2,2,3,3,3,4,5,5,5,5,5,5,6,6,6,7,7,7,8,
  ISYM=1,
 /
  0.6488009642772240E+00   1   1   1   1
  0.1215576701187328E+00   2   1   1   1
  0.6666616304723878E-01   2   1   2   1
  0.4706737564253452E+00   2   2   1   1
  0.3236794382540395E-01   2   2   2   1
  0.4495555190449851E+00   2   2   2   2
 -0.6400392322776614E-01   3   1   1   1
 -0.3661150963154563E-01   3   1   2   1
 -0.3185671923338079E-01   3   1   2   2
  0.3156232877719996E-01   3   1   3   1
 -0.1253149943132604E+00   3   2   1   1
 -0.3899214089644590E-01   3   2   2   1
 -0.7148723221903834E-01   3   2   2   2
  0.2111846511001991E-01   3   2   3   1
  0.5416849501571187E-01   3   2   3   2
  0.3950501416802619E+00   3   3   1   1
  0.3509067778567974E-01   3   3   2   1
  0.3544861327526969E+00   3   3   2   2
 -0.2290440615484279E-01   3   3   3   1
 -0.4363741701556775E-01   3   3   3   2
  0.3172083070584882E+00   3   3   3   3
 -0.7149117787146476E-01   4   1   1   1
 -0.1733485002550954E-01   4   1   2   1
 -0.5730789753584280E-01   4   1   2   2
  0.1845812381903129E-01   4   1   3   1
  0.2727275393908552E-01   4   1   3   2
 -0.2926645710061215E-01   4   1   3   3
  0.2621162291836705E-01   4   1   4   1
  0.3407082140468976E-01   4   2   1   1
 -0.1469539807926586E-01   4   2   2   1
  0.6023045307757249E-01   4   2   2   2
  0.6138195848563541E-02   4   2   3   1
 -0.1950384690668274E-01   4   2   3   2
  0.2293310759115101E-01   4   2   3   3
 -0.1753199741086311E-01   4   2   4   1
  0.3848218409278843E-01   4   2   4   2
  0.3607397264529888E-01   4   3   1   1
  0.2375937104854948E-01   4   3   2   1
 -0.1290991694966422E-01   4   3   2   2
 -0.1357511868886066E-02   4   3   3   1
 -0.1073763494203403E-01   4   3   3   2
  0.4173809414641889E-02   4   3   3   3
  0.8985889940303519E-02   4   3   4   1
 -0.1578775260868260E-01   4   3   4   2
  0.3030437145442150E-01   4   3   4   3
  0.4097163861427568E+00   4   4   1   1
  0.1797376827320111E-01   4   4   2   1
  0.3798325282346867E+00   4   4   2   2
 -0.5960318248051794E-02   4   4   3   1
 -0.5826933430544615E-01   4   4   3   2
  0.3205289785729902E+00   4   4   3   3
 -0.3265175954181510E-01   4   4   4   1
  0.4747060845823914E-01   4   4   4   2
  0.4484217337785423E-02   4   4   4   3
  0.3576248858079887E+00   4   4   4   4
 -0.2106662723143996E-16   5   1   1   1
 -0.2876535079156788E-17   5   1   2   1
 -0.1804101704997389E-16   5   1   2   2
  0.4496140371547780E-17   5   1   3   1
  0.7699208270335051E-17   5   1   3   2
 -0.7952470277189281E-17   5   1   3   3
  0.2749647480201031E-17   5   1   4   1
 -0.6579086300602424E-17   5   1   4   2
  0.2026133957550392E-17   5   1   4   3
 -0.1363541374692590E-16   5   1   4   4
  0.3444484293101670E-01   5   1   5   1
  0.2078066042655925E-16   5   2   1   1
 -0.2205865559000336E-17   5   2   2   1
  0.2574911814251618E-16   5   2   2   2
  0.3573784017037017E-18   5   2   3   1
 -0.1025598077666162E-16   5   2   3   2
  0.1095428641252172E-16   5   2   3   3
 -0.7734840785212826E-17   5   2   4   1
  0.1334486414926203E-16   5   2   4   2
 -0.4468184144855228E-17   5   2   4   3
  0.2028180750579611E-16   5   2   4   4
 -0.2307196436110974E-02   5   2   5   1
  0.8010200304258090E-02   5   2   5   2
  0.4639597086984498E-17   5   3   1   1
  0.7139519452186882E-17   5   3   2   1
 -0.1215009225952441E-16   5   3   2   2
  0.1278042845500626E-17   5   3   3   1
 -0.2917973476216758E-17   5   3   3   2
 -0.4636607560396391E-17   5   3   3   3
  0.2448659831516026E-17   5   3   4   1
 -0.5683767436279083E-17   5   3   4   2
  0.1033568788932197E-16   5   3   4   3
 -0.6039035913067981E-17   5   3   4   4
  0.1300740769311821E-01   5   3   5   1
 -0.2535317387128655E-02   5   3   5   2
  0.8745633673357137E-02   5   3   5   3
  0.7431046143094674E-16   5   4   1   1
 -0.1859163168546899E-17   5   4   2   1
  0.8045182496373042E-16   5   4   2   2
 -0.7067036233402885E-19   5   4   3   1
 -0.9924707389899533E-17   5   4   3   2
  0.6693258868472238E-16   5   4   3   3
 -0.8545145558955379E-17   5   4   4   1
  0.1285920294109960E-16   5   4   4   2
 -0.4209049682329297E-17   5   4   4   3
  0.7252976048962752E-16   5   4   4   4
  0.8691586847001553E-02   5   4   5   1
 -0.3219197287858798E-03   5   4   5   2
  0.6873140120640761E-02   5   4   5   3
  0.1021957016040050E-01   5   4   5   4
  0.4993975034159753E+00   5   5   1   1
  0.4817156550586547E-01   5   5   2   1
  0.3995174128315456E+00   5   5   2   2
 -0.1039683471187097E-01   5   5   3   1
 -0.7252697768722888E-01   5   5   3   2
  0.3443992457838997E+00   5   5   3   3
 -0.3260705266395281E-01   5   5   4   1
  0.3376226788981240E-01   5   5   4   2
  0.2776744827441474E-01   5   5   4   3
  0.3770348726922785E+00   5   5   4   4
 -0.4540705089889065E-17   5   5   5   1
  0.1653454225170447E-16   5   5   5   2
  0.9755212166041094E-17   5   5   5   3
  0.7593272383057334E-16   5   5   5   4
  0.4662267084637414E+00   5   5   5   5
  0.3427559098119473E-01   6   1   1   1
  0.2816431815010739E-01   6   1   2   1
  0.1645110705546118E-01   6   1   2   2
 -0.2136960455607257E-01   6   1   3   1
 -0.1159997185887280E-01   6   1   3   2
  0.1304474555890533E-01   6   1   3   3
 -0.6360004135349734E-02   6   1   4   1
 -0.5917090602544785E-02   6   1   4   2
  0.7018028102174383E-02   6   1   4   3
  0.6010492323527167E-03   6   1   4   4
 -0.3636739633300252E-18   6   1   5   1
 -0.1051089546183082E-17   6   1   5   2
  0.1320718532619115E-17   6   1   5   3
  0.1502254634029868E-18   6   1   5   4
 -0.3903223010133590E-02   6   1   5   5
  0.2938530785800367E-01   6   1   6   1
  0.5821620456315629E-01   6   2   1   1
  0.3879478049412777E-01   6   2   2   1
 -0.1075961928659217E-01   6   2   2   2
 -0.1579045969992313E-01   6   2   3   1
 -0.2073346036929639E-01   6   2   3   2
  0.7592290480565971E-02   6   2   3   3
 -0.3192740337741355E-02   6   2   4   1
 -0.2128585880198541E-01   6   2   4   2
  0.2071075800781548E-01   6   2   4   3
 -0.3021370524973437E-02   6   2   4   4
  0.4449249188146649E-18   6   2   5   1
 -0.5936377083874900E-17   6   2   5   2
  0.7422534772242358E-17   6   2   5   3
 -0.6022357161267956E-17   6   2   5   4
  0.2779113330360114E-01   6   2   5   5
  0.6938317967879977E-02   6   2   6   1
  0.4444909148031936E-01   6   2   6   2
 -0.6703714224104908E-01   6   3   1   1
 -0.2101202737581359E-01   6   3   2   1
 -0.4215986656687463E-01   6   3   2   2
  0.1628226818587079E-01   6   3   3   1
  0.1677054003657465E-01   6   3   3   2
 -0.2727814579516999E-01   6   3   3   3
  0.1364830261468522E-01   6   3   4   1
 -0.8464877028686660E-03   6   3   4   2
 -0.2993005884276159E-02   6   3   4   3
 -0.2243087404141187E-01   6   3   4   4
  0.3161667923575412E-17   6   3   5   1
 -0.1404700175072480E-17   6   3   5   2
 -0.4233502132509537E-18   6   3   5   3
 -0.2149221168537996E-17   6   3   5   4
 -0.3933297236501500E-01   6   3   5   5
 -0.8672512730118057E-02   6   3   6   1
 -0.1076926907305788E-01   6   3   6   2
  0.1766468289316943E-01   6   3   6   3
 -0.9239837035005222E-02   6   4   1   1
  0.1910669922991502E-02   6   4   2   1
 -0.2922401061744471E-01   6   4   2   2
  0.6672452812679013E-02   6   4   3   1
  0.3827417928990572E-02   6   4   3   2
 -0.1007181148633951E-01   6   4   3   3
  0.8289868168281721E-02   6   4   4   1
 -0.1155386070653676E-01   6   4   4   2
  0.1161015846599151E-01   6   4   4   3
 -0.1053462956389450E-01   6   4   4   4
  0.4269206716681370E-17   6   4   5   1
 -0.5230204146312073E-17   6   4   5   2
  0.5666449284915443E-17   6   4   5   3
 -0.3872738575469474E-17   6   4   5   4
 -0.7505293172488058E-03   6   4   5   5
 -0.8103066208018931E-02   6   4   6   1
  0.1297784954023080E-01   6   4   6   2
  0.4106964499927423E-02   6   4   6   3
  0.1521742555973467E-01   6   4   6   4
  0.1528453384725550E-17   6   5   1   1
  0.2182654435697122E-17   6   5   2   1
 -0.7514818684564060E-17   6   5   2   2
  0.9153058462107351E-18   6   5   3   1
  0.4515845753628090E-18   6   5   3   2
 -0.1743490449995325E-17   6   5   3   3
  0.3939256892153979E-17   6   5   4   1
 -0.5013961638213966E-17   6   5   4   2
  0.5198668888484415E-17   6   5   4   3
 -0.1789047467454923E-17   6   5   4   4
 -0.1267816197721802E-01   6   5   5   1
  0.6112896660065158E-02   6   5   5   2
 -0.5918689245291022E-02   6   5   5   3
 -0.1227486916523719E-02   6   5   5   4
  0.1256081309257800E-17   6   5   5   5
 -0.1924839861737075E-17   6   5   6   1
  0.5042108549909918E-17   6   5   6   2
  0.7926394462047207E-18   6   5   6   3
  0.3085401835841963E-17   6   5   6   4
  0.1350430033340567E-01   6   5   6   5
  0.4751122360848484E+00   6   6   1   1
  0.3653848296618969E-01   6   6   2   1
  0.4287929101398873E+00   6   6   2   2
 -0.2409556320334832E-01   6   6   3   1
 -0.6892654007707866E-01   6   6   3   2
  0.3474776252292037E+00   6   6   3   3
 -0.4855678950375630E-01   6   6   4   1
  0.5046613624229634E-01   6   6   4   2
  0.4315149872885171E-02   6   6   4   3
  0.3747643416940858E+00   6   6   4   4
 -0.1509782631421065E-16   6   6   5   1
  0.2198349037030566E-16   6   6   5   2
 -0.4920678915916445E-17   6   6   5   3
  0.7593312308867248E-16   6   6   5   4
  0.4145781142792868E+00   6   6   5   5
  0.1072620899739485E-01   6   6   6   1
 -0.2841518664166931E-02   6   6   6   2
 -0.4327268310902765E-01   6   6   6   3
 -0.2040271708069141E-01   6   6   6   4
 -0.4703670175430549E-17   6   6   6   5
  0.4322686612562843E+00   6   6   6   6
  0.5275259310056385E+00   7   7   1   1
  0.6151242928084706E-01   7   7   2   1
  0.4172247255240815E+00   7   7   2   2
 -0.2337361371047900E-01   7   7   3   1
 -0.8678414050607969E-01   7   7   3   2
  0.3542192225493236E+00   7   7   3   3
 -0.4656666434325385E-01   7   7   4   1
  0.3978936450491277E-01   7   7   4   2
  0.2357537700112877E-01   7   7   4   3
  0.3857315848354284E+00   7   7   4   4
  0.2561914552240425E-01   7   7   5   1
 -0.2897578918092082E-02   7   7   5   2
  0.1005501520167767E-01   7   7   5   3
  0.6202761614906631E-02   7   7   5   4
  0.4557050875629534E+00   7   7   5   5
  0.2319478836559363E-02   7   7   6   1
  0.2998022100537484E-01   7   7   6   2
 -0.4286649449483770E-01   7   7   6   3
 -0.2184473006428433E-02   7   7   6   4
 -0.1026982282471515E-01   7   7   6   5
  0.4252953467149657E+00   7   7   6   6
  0.4889291679543967E+00   7   7   7   7
 -0.1314691839490843E+00   8   7   1   1
 -0.3541898575560794E-01   8   7   2   1
 -0.8182000790488801E-01   8   7   2   2
  0.2360759349152569E-01   8   7   3   1
  0.4247379496745250E-01   8   7   3   2
 -0.5040916939464866E-01   8   7   3   3
  0.3387190270692580E-01   8   7   4   1
 -0.2022631292762282E-01   8   7   4   2
  0.2979354799904729E-02   8   7   4   3
 -0.5454452907389029E-01   8   7   4   4
 -0.4485165616952818E-02   8   7   5   1
 -0.1735895947684506E-02   8   7   5   2
  0.1418381503748577E-02   8   7   5   3
  0.4932326224440377E-02   8   7   5   4
 -0.7560741571024389E-01   8   7   5   5
 -0.4315185892456858E-02   8   7   6   1
 -0.1449519955231965E-01   8   7   6   2
  0.2081473668654694E-01   8   7   6   3
  0.4805545302539599E-02   8   7   6   4
  0.2272055665839484E-02   8   7   6   5
 -0.7720702677684434E-01   8   7   6   6
 -0.9722954674889477E-01   8   7   7   7
  0.6359705396590529E-01   8   7   8   7
  0.4204917378185360E+00   8   8   1   1
  0.4073088632800291E-01   8   8   2   1
  0.3499651297270698E+00   8   8   2   2
 -0.1675662365392946E-01   8   8   3   1
 -0.6042313235928998E-01   8   8   3   2
  0.3098196537660485E+00   8   8   3   3
 -0.3067730908168820E-01   8   8   4   1
  0.2540584558179898E-01   8   8   4   2
  0.1853616375922967E-01   8   8   4   3
  0.3344167075179703E+00   8   8   4   4
  0.1491841695702294E-01   8   8   5   1
 -0.2798298837825235E-02   8   8   5   2
  0.6633049756664310E-02   8   8   5   3
  0.5954879671710519E-02   8   8   5   4
  0.3692170803938774E+00   8   8   5   5
  0.3264420298610848E-02   8   8   6   1
  0.1854593144961633E-01   8   8   6   2
 -0.2583304620291954E-01   8   8   6   3
  0.1238586945132403E-02   8   8   6   4
 -0.5203633751211517E-02   8   8   6   5
  0.3534555764705904E+00   8   8   6   6
  0.3959249685894882E+00   8   8   7   7
 -0.5829794773635322E-01   8   8   8   7
  0.3493381833476012E+00   8   8   8   8
  0.5571487655471222E-01   9   7   1   1
  0.4145543395143701E-01   9   7   2   1
 -0.1220112860703597E-01   9   7   2   2
 -0.1104707556767936E-01   9   7   3   1
 -0.1145797972384684E-01   9   7   3   2
  0.9118848196914484E-02   9   7   3   3
  0.5963778504943701E-02   9   7   4   1
 -0.1989124711427033E-01   9   7   4   2
  0.2744966531126838E-01   9   7   4   3
 -0.2651849006093154E-02   9   7   4   4
  0.7614496838059311E-02   9   7   5   1
  0.6569755739086810E-02   9   7   5   2
  0.2479696261631110E-02   9   7   5   3
  0.4922604474509908E-02   9   7   5   4
  0.2674272797360738E-01   9   7   5   5
  0.1749764063425283E-01   9   7   6   1
  0.2509770125838067E-01   9   7   6   2
 -0.5379263215533989E-02   9   7   6   3
  0.7446367267306228E-02   9   7   6   4
  0.3223073265791119E-02   9   7   6   5
  0.1413023652928676E-02   9   7   6   6
  0.3028534228266376E-01   9   7   7   7
 -0.7411411014586089E-02   9   7   8   7
  0.1626474823295820E-01   9   7   8   8
  0.5507104565032788E-01   9   7   9   7
 -0.2155934577051108E-01   9   8   1   1
 -0.1547841044553405E-01   9   8   2   1
 -0.3859619915918295E-02   9   8   2   2
  0.1007353620503694E-01   9   8   3   1
  0.9917419812933981E-04   9   8   3   2
 -0.4897538738158690E-02   9   8   3   3
  0.2478372818907407E-03   9   8   4   1
  0.1036377043387846E-01   9   8   4   2
 -0.4558699253339514E-02   9   8   4   3
  0.5159044037901734E-02   9   8   4   4
 -0.1924501134234893E-02   9   8   5   1
 -0.1551929249520276E-02   9   8   5   2
  0.1356373277605182E-02   9   8   5   3
 -0.2957629606286999E-03   9   8   5   4
 -0.7231119276800205E-02   9   8   5   5
 -0.9768899936855716E-02   9   8   6   1
 -0.7693430915573035E-02   9   8   6   2
  0.6462291495226832E-02   9   8   6   3
  0.2413684360866735E-02   9   8   6   4
 -0.9743917156415525E-03   9   8   6   5
 -0.4474411342584841E-02   9   8   6   6
 -0.6277003643171127E-02   9   8   7   7
  0.3263632336994216E-02   9   8   8   7
 -0.1201745591185382E-03   9   8   8   8
 -0.1529766593127939E-01   9   8   9   7
  0.1272847407218211E-01   9   8   9   8
  0.5060899286309010E+00   9   9   1   1
  0.4417494941631064E-01   9   9   2   1
  0.4382288667099481E+00   9   9   2   2
 -0.2115095582781654E-01   9   9   3   1
 -0.7607020913554632E-01   9   9   3   2
  0.3551993556257703E+00   9   9   3   3
 -0.4752525012974440E-01   9   9   4   1
  0.5122975741539326E-01   9   9   4   2
  0.9239534144947603E-02   9   9   4   3
  0.3881735925923462E+00   9   9   4   4
  0.2279646870486220E-01   9   9   5   1
 -0.4481511818382767E-02   9   9   5   2
  0.7907821401946244E-02   9   9   5   3
  0.4379129031779352E-02   9   9   5   4
  0.4440472177522821E+00   9   9   5   5
  0.1021768781673527E-01   9   9   6   1
  0.1069119022615758E-01   9   9   6   2
 -0.4262884581112958E-01   9   9   6   3
 -0.1419509559725551E-01   9   9   6   4
 -0.6257944502114176E-02   9   9   6   5
  0.4325361898059260E+00   9   9   6   6
  0.4701094461405835E+00   9   9   7   7
 -0.8760426553551848E-01   9   9   8   7
  0.3783890445007373E+00   9   9   8   8
  0.1460447952260560E-01   9   9   9   7
 -0.9447156662878792E-02   9   9   9   8
  0.4867148322049523E+00   9   9   9   9
  0.5275259310056389E+00  10  10   1   1
  0.6151242928084713E-01  10  10   2   1
  0.4172247255240816E+00  10  10   2   2
 -0.2337361371047905E-01  10  10   3   1
 -0.8678414050607958E-01  10  10   3   2
  0.3542192225493230E+00  10  10   3   3
 -0.4656666434325496E-01  10  10   4   1
  0.3978936450491288E-01  10  10   4   2
  0.2357537700112944E-01  10  10   4   3
  0.3857315848354275E+00  10  10   4   4
 -0.2561914552240429E-01  10  10   5   1
  0.2897578918092118E-02  10  10   5   2
 -0.1005501520167765E-01  10  10   5   3
 -0.6202761614906473E-02  10  10   5   4
  0.4557050875629535E+00  10  10   5   5
  0.2319478836559030E-02  10  10   6   1
  0.2998022100537512E-01  10  10   6   2
 -0.4286649449483826E-01  10  10   6   3
 -0.2184473006427656E-02  10  10   6   4
  0.1026982282471517E-01  10  10   6   5
  0.4252953467149655E+00  10  10   6   6
  0.4488040833556802E+00  10  10   7   7
 -0.9024720078692333E-01  10  10   8   7
  0.3695076090945600E+00  10  10   8   8
  0.2192504132453357E-01  10  10   9   7
 -0.5478456066934242E-02  10  10   9   8
  0.4359541223537531E+00  10  10   9   9
  0.4889291679543971E+00  10  10  10  10
 -0.1314691839490844E+00  11  10   1   1
 -0.3541898575560774E-01  11  10   2   1
 -0.8182000790488812E-01  11  10   2   2
  0.2360759349152529E-01  11  10   3   1
  0.4247379496745216E-01  11  10   3   2
 -0.5040916939464793E-01  11  10   3   3
  0.3387190270692558E-01  11  10   4   1
 -0.2022631292762313E-01  11  10   4   2
  0.2979354799905548E-02  11  10   4   3
 -0.5454452907388842E-01  11  10   4   4
  0.4485165616952835E-02  11  10   5   1
  0.1735895947684474E-02  11  10   5   2
 -0.1418381503748587E-02  11  10   5   3
 -0.4932326224440384E-02  11  10   5   4
 -0.7560741571024383E-01  11  10   5   5
 -0.4315185892457357E-02  11  10   6   1
 -0.1449519955232021E-01  11  10   6   2
  0.2081473668654831E-01  11  10   6   3
  0.4805545302541153E-02  11  10   6   4
 -0.2272055665839491E-02  11  10   6   5
 -0.7720702677684221E-01  11  10   6   6
 -0.9024720078692335E-01  11  10   7   7
  0.4999208742259266E-01  11  10   8   7
 -0.5976463839708504E-01  11  10   8   8
 -0.6748161840005984E-02  11  10   9   7
  0.2029159489704468E-02  11  10   9   8
 -0.8215906948538913E-01  11  10   9   9
 -0.9722954674889520E-01  11  10  10  10
  0.6359705396590569E-01  11  10  11  10
  0.4204917378185362E+00  11  11   1   1
  0.4073088632800273E-01  11  11   2   1
  0.3499651297270700E+00  11  11   2   2
 -0.1675662365392908E-01  11  11   3   1
 -0.6042313235928942E-01  11  11   3   2
  0.3098196537660470E+00  11  11   3   3
 -0.3067730908168842E-01  11  11   4   1
  0.2540584558179876E-01  11  11   4   2
  0.1853616375922962E-01  11  11   4   3
  0.3344167075179703E+00  11  11   4   4
 -0.1491841695702295E-01  11  11   5   1
  0.2798298837825268E-02  11  11   5   2
 -0.6633049756664259E-02  11  11   5   3
 -0.5954879671710406E-02  11  11   5   4
  0.3692170803938775E+00  11  11   5   5
  0.3264420298611292E-02  11  11   6   1
  0.1854593144961700E-01  11  11   6   2
 -0.2583304620292109E-01  11  11   6   3
  0.1238586945132014E-02  11  11   6   4
  0.5203633751211548E-02  11  11   6   5
  0.3534555764705883E+00  11  11   6   6
  0.3695076090945603E+00  11  11   7   7
 -0.5976463839708568E-01  11  11   8   7
  0.3215229009544250E+00  11  11   8   8
  0.1227262726482223E-01  11  11   9   7
 -0.1589953818348630E-02  11  11   9   8
  0.3585117355416562E+00  11  11   9   9
  0.3959249685894883E+00  11  11  10  10
 -0.5829794773635372E-01  11  11  11  10
  0.3493381833476029E+00  11  11  11  11
  0.5571487655471224E-01  12  10   1   1
  0.4145543395143705E-01  12  10   2   1
 -0.1220112860703594E-01  12  10   2   2
 -0.1104707556767954E-01  12  10   3   1
 -0.1145797972384695E-01  12  10   3   2
  0.9118848196914758E-02  12  10   3   3
  0.5963778504943978E-02  12  10   4   1
 -0.1989124711427045E-01  12  10   4   2
  0.2744966531126888E-01  12  10   4   3
 -0.2651849006094034E-02  12  10   4   4
 -0.7614496838059316E-02  12  10   5   1
 -0.6569755739086826E-02  12  10   5   2
 -0.2479696261631089E-02  12  10   5   3
 -0.4922604474509882E-02  12  10   5   4
  0.2674272797360747E-01  12  10   5   5
  0.1749764063425293E-01  12  10   6   1
  0.2509770125838046E-01  12  10   6   2
 -0.5379263215533413E-02  12  10   6   3
  0.7446367267305888E-02  12  10   6   4
 -0.3223073265791096E-02  12  10   6   5
  0.1413023652928939E-02  12  10   6   6
  0.2192504132453360E-01  12  10   7   7
 -0.6748161840005908E-02  12  10   8   7
  0.1227262726482259E-01  12  10   8   8
  0.3648448888151383E-01  12  10   9   7
 -0.1088539500006568E-01  12  10   9   8
  0.9299180458483583E-02  12  10   9   9
  0.3028534228266375E-01  12  10  10  10
 -0.7411411014585926E-02  12  10  11  10
  0.1626474823295780E-01  12  10  11  11
  0.5507104565032803E-01  12  10  12  10
 -0.2155934577051120E-01  12  11   1   1
 -0.1547841044553411E-01  12  11   2   1
 -0.3859619915918175E-02  12  11   2   2
  0.1007353620503716E-01  12  11   3   1
  0.9917419812946124E-04  12  11   3   2
 -0.4897538738159015E-02  12  11   3   3
  0.2478372818918266E-03  12  11   4   1
  0.1036377043387881E-01  12  11   4   2
 -0.4558699253340156E-02  12  11   4   3
  0.5159044037895810E-02  12  11   4   4
  0.1924501134234870E-02  12  11   5   1
  0.1551929249520279E-02  12  11   5   2
 -0.1356373277605164E-02  12  11   5   3
  0.2957629606287492E-03  12  11   5   4
 -0.7231119276800047E-02  12  11   5   5
 -0.9768899936854786E-02  12  11   6   1
 -0.7693430915572654E-02  12  11   6   2
  0.6462291495226027E-02  12  11   6   3
  0.2413684360862410E-02  12  11   6   4
  0.9743917156415965E-03  12  11   6   5
 -0.4474411342588367E-02  12  11   6   6
 -0.5478456066934096E-02  12  11   7   7
  0.2029159489704026E-02  12  11   8   7
 -0.1589953818348756E-02  12  11   8   8
 -0.1088539500006576E-01  12  11   9   7
  0.8028692435896739E-02  12  11   9   8
 -0.6469848288355423E-02  12  11   9   9
 -0.6277003643171087E-02  12  11  10  10
  0.3263632336994142E-02  12  11  11  10
 -0.1201745591183365E-03  12  11  11  11
 -0.1529766593127938E-01  12  11  12  10
  0.1272847407218206E-01  12  11  12  11
  0.5060899286309009E+00  12  12   1   1
  0.4417494941631075E-01  12  12   2   1
  0.4382288667099482E+00  12  12   2   2
 -0.2115095582781626E-01  12  12   3   1
 -0.7607020913554619E-01  12  12   3   2
  0.3551993556257700E+00  12  12   3   3
 -0.4752525012974407E-01  12  12   4   1
  0.5122975741539304E-01  12  12   4   2
  0.9239534144947825E-02  12  12   4   3
  0.3881735925923460E+00  12  12   4   4
 -0.2279646870486223E-01  12  12   5   1
  0.4481511818382808E-02  12  12   5   2
 -0.7907821401946243E-02  12  12   5   3
 -0.4379129031779201E-02  12  12   5   4
  0.4440472177522821E+00  12  12   5   5
  0.1021768781673549E-01  12  12   6   1
  0.1069119022615767E-01  12  12   6   2
 -0.4262884581112997E-01  12  12   6   3
 -0.1419509559725518E-01  12  12   6   4
  0.6257944502114168E-02  12  12   6   5
  0.4325361898059254E+00  12  12   6   6
  0.4359541223537530E+00  12  12   7   7
 -0.8215906948538926E-01  12  12   8   7
  0.3585117355416561E+00  12  12   8   8
  0.9299180458483436E-02  12  12   9   7
 -0.6469848288355201E-02  12  12   9   8
  0.4451746122427366E+00  12  12   9   9
  0.4701094461405834E+00  12  12  10  10
 -0.8760426553551831E-01  12  12  11  10
  0.3783890445007365E+00  12  12  11  11
  0.1460447952260591E-01  12  12  12  10
 -0.9447156662879083E-02  12  12  12  11
  0.4867148322049520E+00  12  12  12  12
  0.4993975034159753E+00  13  13   1   1
  0.4817156550586560E-01  13  13   2   1
  0.3995174128315453E+00  13  13   2   2
 -0.1039683471187092E-01  13  13   3   1
 -0.7252697768722888E-01  13  13   3   2
  0.3443992457838987E+00  13  13   3   3
 -0.3260705266395347E-01  13  13   4   1
  0.3376226788981174E-01  13  13   4   2
  0.2776744827441535E-01  13  13   4   3
  0.3770348726922791E+00  13  13   4   4
 -0.1040747988851933E-16  13  13   5   1
  0.1648642342685107E-16  13  13   5   2
  0.4694178671980025E-17  13  13   5   3
  0.7155432197785271E-16  13  13   5   4
  0.4466894708573438E+00  13  13   5   5
 -0.3903223010134016E-02  13  13   6   1
  0.2779113330360061E-01  13  13   6   2
 -0.3933297236501493E-01  13  13   6   3
 -0.7505293172481720E-03  13  13   6   4
  0.1933401256125646E-17  13  13   6   5
  0.4145781142792897E+00  13  13   6   6
  0.4557050875629531E+00  13  13   7   7
 -0.7560741571024376E-01  13  13   8   7
  0.3692170803938771E+00  13  13   8   8
  0.2674272797360738E-01  13  13   9   7
 -0.7231119276800119E-02  13  13   9   8
  0.4440472177522820E+00  13  13   9   9
  0.4557050875629533E+00  13  13  10  10
 -0.7560741571024399E-01  13  13  11  10
  0.3692170803938771E+00  13  13  11  11
  0.2674272797360744E-01  13  13  12  10
 -0.7231119276800077E-02  13  13  12  11
  0.4440472177522817E+00  13  13  12  12
  0.4662267084637409E+00  13  13  13  13
  0.4395275949825190E+00  14  14   1   1
  0.4986979452790065E-02  14  14   2   1
  0.4371207934047335E+00  14  14   2   2
 -0.9807275875038352E-02  14  14   3   1
 -0.6204936361580771E-01  14  14   3   2
  0.3418781922213228E+00  14  14   3   3
 -0.5059496181941270E-01  14  14   4   1
  0.6858624322704709E-01  14  14   4   2
 -0.1667685876999875E-01  14  14   4   3
  0.3838352369913879E+00  14  14   4   4
 -0.1732337223837624E-16  14  14   5   1
  0.2765429561458808E-16  14  14   5   2
 -0.1219851470477901E-16  14  14   5   3
  0.8162836436050893E-16  14  14   5   4
  0.4047982735795880E+00  14  14   5   5
 -0.6157634247566546E-02  14  14   6   1
 -0.1872091264178352E-01  14  14   6   2
 -0.3367584721945477E-01  14  14   6   3
 -0.2284227565462388E-01  14  14   6   4
 -0.6293926274651369E-17  14  14   6   5
  0.4224483908862109E+00  14  14   6   6
  0.4154401156962078E+00  14  14   7   7
 -0.7425215026857213E-01  14  14   8   7
  0.3478048357997799E+00  14  14   8   8
 -0.2714586636744011E-01  14  14   9   7
  0.5483593539574186E-02  14  14   9   8
  0.4343003829372105E+00  14  14   9   9
  0.4154401156962079E+00  14  14  10  10
 -0.7425215026857246E-01  14  14  11  10
  0.3478048357997799E+00  14  14  11  11
 -0.2714586636744008E-01  14  14  12  10
  0.5483593539574200E-02  14  14  12  11
  0.4343003829372103E+00  14  14  12  12
  0.4047982735795879E+00  14  14  13  13
  0.4457829809553379E+00  14  14  14  14
  0.8206681111446266E-01  15  14   1   1
  0.1486762387502502E-01  15  14   2   1
  0.4838135238565871E-01  15  14   2   2
 -0.2484585047863884E-02  15  14   3   1
 -0.3477645138304300E-01  15  14   3   2
  0.2706835414922880E-01  15  14   3   3
 -0.1595012487376433E-01  15  14   4   1
  0.1894808607200750E-01  15  14   4   2
  0.7821902057878069E-02  15  14   4   3
  0.4794610815429490E-01  15  14   4   4
 -0.5524152114834244E-17  15  14   5   1
  0.8839788538160914E-17  15  14   5   2
  0.2758158907558045E-17  15  14   5   3
  0.7778375820662535E-17  15  14   5   4
  0.6358832687743969E-01  15  14   5   5
 -0.4078640871088335E-02  15  14   6   1
  0.1109733557121816E-01  15  14   6   2
 -0.8470114417131178E-02  15  14   6   3
  0.1201029564702846E-02  15  14   6   4
  0.8157545246206599E-18  15  14   6   5
  0.5195301720099432E-01  15  14   6   6
  0.6924832208747680E-01  15  14   7   7
 -0.2841474774527342E-01  15  14   8   7
  0.4651683343944934E-01  15  14   8   8
  0.3214918638058471E-02  15  14   9   7
  0.3990701910426139E-02  15  14   9   8
  0.6025126461060575E-01  15  14   9   9
  0.6924832208747683E-01  15  14  10  10
 -0.2841474774527343E-01  15  14  11  10
  0.4651683343944934E-01  15  14  11  11
  0.3214918638058506E-02  15  14  12  10
  0.3990701910426152E-02  15  14  12  11
  0.6025126461060572E-01  15  14  12  12
  0.6358832687743911E-01  15  14  13  13
  0.5364594176258821E-01  15  14  14  14
  0.2962296360117195E-01  15  14  15  14
  0.2872338040963702E+00  15  15   1   1
 -0.1962135614733823E-03  15  15   2   1
  0.3005635001810570E+00  15  15   2   2
 -0.9923247070036723E-02  15  15   3   1
 -0.7221862187296868E-03  15  15   3   2
  0.2782297667001277E+00  15  15   3   3
 -0.1696189568318884E-01  15  15   4   1
  0.1443105735488781E-01  15  15   4   2
 -0.1947455818637961E-01  15  15   4   3
  0.2668694383230499E+00  15  15   4   4
 -0.5803335406751850E-17  15  15   5   1
  0.5363083141437040E-17  15  15   5   2
 -0.1312426097487952E-16  15  15   5   3
  0.5840858018352361E-16  15  15   5   4
  0.2733027506837877E+00  15  15   5   5
 -0.1268135604726717E-03  15  15   6   1
 -0.1134756174165713E-01  15  15   6   2
 -0.1459576953654979E-01  15  15   6   3
 -0.1252551574213917E-01  15  15   6   4
 -0.3102308104113448E-17  15  15   6   5
  0.2886206842841643E+00  15  15   6   6
  0.2762908700007947E+00  15  15   7   7
 -0.2629755651178817E-01  15  15   8   7
  0.2509981647019986E+00  15  15   8   8
 -0.1109325969553208E-01  15  15   9   7
 -0.3457854401980681E-02  15  15   9   8
  0.2881046279309806E+00  15  15   9   9
  0.2762908700007948E+00  15  15  10  10
 -0.2629755651178836E-01  15  15  11  10
  0.2509981647019988E+00  15  15  11  11
 -0.1109325969553206E-01  15  15  12  10
 -0.3457854401980681E-02  15  15  12  11
  0.2881046279309805E+00  15  15  12  12
  0.2733027506837916E+00  15  15  13  13
  0.2965091206650433E+00  15  15  14  14
 -0.9800609183215347E-03  15  15  15  14
  0.2871050692605859E+00  15  15  15  15
  0.7479231033050155E-02  16  14   1   1
 -0.2141800915253162E-01  16  14   2   1
  0.6221088586152084E-01  16  14   2   2
  0.1214851862292765E-02  16  14   3   1
 -0.1063811713663824E-01  16  14   3   2
  0.1960555180184316E-01  16  14   3   3
 -0.1897342588804179E-01  16  14   4   1
  0.4065405103181556E-01  16  14   4   2
 -0.2652427854267990E-01  16  14   4   3
  0.3728414168217992E-01  16  14   4   4
 -0.1552761300686746E-16  16  14   5   1
  0.1839147643051921E-16  16  14   5   2
 -0.1414333949616046E-16  16  14   5   3
  0.1216254490326984E-16  16  14   5   4
  0.4019866795234394E-02  16  14   5   5
  0.3131909993375929E-02  16  14   6   1
 -0.3507968250297920E-01  16  14   6   2
  0.3720996233937818E-03  16  14   6   3
 -0.2024440950486465E-01  16  14   6   4
 -0.1517597570233166E-17  16  14   6   5
  0.4314223250539014E-01  16  14   6   6
  0.1263948684848114E-01  16  14   7   7
 -0.1317026142979348E-01  16  14   8   7
  0.8807402571547305E-02  16  14   8   8
 -0.2835551195363905E-01  16  14   9   7
  0.9483672422309337E-02  16  14   9   8