 &FCI NORB= 42,NELEC= 48,MS2= 0,
  ORBSYM=1,1,1,1,1,1,1,1,1,1,1,2,2,2,2,3,3,3,3,4,4,5,5,5,5,5,5,5,5,5,
 5,5,6,6,6,6,7,7,7,7,8,8,
  ISYM=1,
 /
  0.7502397844362465E+01   1   1   1   1
 -0.9269255360059484E+00   2   1   1   1
  0.1955314287371464E+00   2   1   2   1
  0.2338422840019474E+01   2   2   1   1
 -0.6721350523899955E-01   2   2   2   1
  0.1715316884508302E+01   2   2   2   2
 -0.1042911834553963E-01   3   1   1   1
  0.5670918497281501E-03   3   1   2   1
 -0.4536597252958573E-02   3   1   2   2
  0.1317439734101013E+00   3   1   3   1
 -0.1220028423414927E-01   3   2   1   1
 -0.1130684918829963E-02   3   2   2   1
 -0.1662860414711040E-01   3   2   2   2
  0.1125810868819705E+00   3   2   3   1
  0.3149900930863854E+00   3   2   3   2
  0.2589468832923755E+01   3   3   1   1
 -0.6234374785566937E-01   3   3   2   1
  0.1801561107863695E+01   3   3   2   2
 -0.1870327495817514E-03   3   3   3   1
 -0.6413487064919276E-02   3   3   3   2
  0.2066926744005521E+01   3   3   3   3
  0.3020581193481141E+00   4   1   1   1
 -0.6517209866456126E-01   4   1   2   1
  0.2100899118720612E-01   4   1   2   2
  0.5983370794124883E-02   4   1   3   1
  0.5180908789179626E-02   4   1   3   2
  0.1840892572117744E-01   4   1   3   3
  0.2205202020021486E-01   4   1   4   1
 -0.3629658346650955E+00   4   2   1   1
  0.2279382041783781E-01   4   2   2   1
 -0.1657915273840007E+00   4   2   2   2
  0.3147548204607912E-02   4   2   3   1
  0.4343155308269851E-02   4   2   3   2
 -0.1898673059385983E+00   4   2   3   3
 -0.6953224808255543E-02   4   2   4   1
  0.3825258676351308E-01   4   2   4   2
  0.5602271074889047E-01   4   3   1   1
 -0.2648344988313879E-02   4   3   2   1
  0.2331073583072798E-01   4   3   2   2
 -0.2554547246835796E-01   4   3   3   1
 -0.4618891288776014E-01   4   3   3   2
  0.2999631249063625E-01   4   3   3   3
 -0.3603612342591737E-03   4   3   4   1
 -0.7942563346970990E-02   4   3   4   2
  0.1652009420404800E-01   4   3   4   3
  0.8927989018627144E+00   4   4   1   1
 -0.7846418281907769E-02   4   4   2   1
  0.8257213963553883E+00   4   4   2   2
 -0.8100307372634999E-02   4   4   3   1
 -0.3656971205361523E-01   4   4   3   2
  0.8350761284734803E+00   4   4   3   3
  0.2249135290048374E-02   4   4   4   1
 -0.1513442604790349E-01   4   4   4   2
 -0.3231784921788052E-02   4   4   4   3
  0.7051597867017682E+00   4   4   4   4
  0.7024546159800132E-01   5   1   1   1
 -0.1466604592697661E-01   5   1   2   1
  0.5957400284755715E-02   5   1   2   2
 -0.4045764739161842E-01   5   1   3   1
 -0.3145192566555061E-01   5   1   3   2
  0.3743238596532117E-02   5   1   3   3
  0.2996493743656540E-02   5   1   4   1
 -0.2489107443169881E-02   5   1   4   2
  0.7522481616184493E-02   5   1   4   3
  0.2793341768387868E-02   5   1   4   4
  0.1354818493230080E-01   5   1   5   1
 -0.8233966750725484E-01   5   2   1   1
  0.5246249956237395E-02   5   2   2   1
 -0.3860081830795390E-01   5   2   2   2
 -0.1597075871179819E-01   5   2   3   1
 -0.2084959887661545E-01   5   2   3   2
 -0.4750208072950573E-01   5   2   3   3
 -0.2352844347195368E-02   5   2   4   1
  0.6443235051338819E-02   5   2   4   2
  0.1046894485694939E-01   5   2   4   3
 -0.1213130161412784E-01   5   2   4   4
  0.4298387427451355E-02   5   2   5   1
  0.1201741867996931E-01   5   2   5   2
 -0.3742792233410352E+00   5   3   1   1
  0.1913777195762106E-01   5   3   2   1
 -0.1573723212492099E+00   5   3   2   2
 -0.7789053223253245E-02   5   3   3   1
 -0.1692385775115112E-01   5   3   3   2
 -0.2108804296957452E+00   5   3   3   3
 -0.5953594826926209E-02   5   3   4   1
  0.3699296760902594E-01   5   3   4   2
 -0.3280369430566894E-02   5   3   4   3
 -0.1473989972273071E-01   5   3   4   4
  0.1054635120662310E-02   5   3   5   1
  0.1070548457301805E-01   5   3   5   2
  0.4749124276582017E-01   5   3   5   3
 -0.1155858132212048E-01   5   4   1   1
 -0.1012791302450249E-02   5   4   2   1
 -0.1779304017602663E-01   5   4   2   2
  0.1778418474683855E-01   5   4   3   1
  0.7535202383832929E-01   5   4   3   2
 -0.1885728111613033E-01   5   4   3   3
  0.1079990454274386E-02   5   4   4   1
 -0.3965358944002240E-02   5   4   4   2
  0.9167911796291105E-02   5   4   4   3
 -0.7355595617298379E-01   5   4   4   4
 -0.4793905836723020E-02   5   4   5   1
  0.1455000666339100E-01   5   4   5   2
 -0.3905498908041376E-02   5   4   5   3
  0.1215222911044772E+00   5   4   5   4
  0.8542887442777646E+00   5   5   1   1
 -0.6329273566951621E-02   5   5   2   1
  0.7866121081259627E+00   5   5   2   2
  0.4007131226006049E-02   5   5   3   1
  0.9474603506361173E-02   5   5   3   2
  0.8146395833539719E+00   5   5   3   3
  0.2181050132214063E-02   5   5   4   1
 -0.1465035900938219E-01   5   5   4   2
 -0.3245233588258997E-03   5   5   4   3
  0.6641187654945465E+00   5   5   4   4
 -0.7046121605197245E-03   5   5   5   1
 -0.5615202073034672E-02   5   5   5   2
 -0.1221336886521196E-01   5   5   5   3
 -0.2511580659401976E-01   5   5   5   4
  0.6801190466669087E+00   5   5   5   5
 -0.1028000725324401E-01   6   1   1   1
  0.2306526419081809E-02   6   1   2   1
 -0.5637620406476084E-03   6   1   2   2
 -0.6527172477875669E-02   6   1   3   1
 -0.5090169312730526E-02   6   1   3   2
  0.2570032752579183E-02   6   1   3   3
 -0.1074628963248248E-02   6   1   4   1
  0.1212797469320255E-03   6   1   4   2
  0.1260393581953682E-02   6   1   4   3
  0.2560874252874052E-03   6   1   4   4
  0.1830195767337979E-02   6   1   5   1
  0.7644599829283064E-03   6   1   5   2
 -0.7536931894654028E-04   6   1   5   3
 -0.8296745552379036E-03   6   1   5   4
  0.2738520808651881E-04   6   1   5   5
  0.4444069145503020E-03   6   1   6   1
  0.1260357533454475E-01   6   2   1   1
 -0.7937996799745133E-03   6   2   2   1
  0.5663772026592945E-02   6   2   2   2
 -0.2606262574179170E-02   6   2   3   1
 -0.3666461174412687E-02   6   2   3   2
  0.3382700681708607E-01   6   2   3   3
  0.1483668343089289E-03   6   2   4   1
 -0.1145364908360176E-02   6   2   4   2
  0.2020311236705461E-02   6   2   4   3
  0.1450894452777572E-02   6   2   4   4
  0.7663101017575605E-03   6   2   5   1
  0.2801694031055832E-03   6   2   5   2
 -0.8267583532674087E-03   6   2   5   3
 -0.9836378262488203E-03   6   2   5   4
  0.1051846792628252E-01   6   2   5   5
  0.5986398454098013E-03   6   2   6   1
  0.1008881703511827E-01   6   2   6   2
 -0.6218149032876234E-01   6   3   1   1
  0.2898647691591800E-02   6   3   2   1
 -0.2875318703611516E-01   6   3   2   2
  0.1849425068415153E-01   6   3   3   1
  0.6207670302582791E-01   6   3   3   2
 -0.3439650853355675E-01   6   3   3   3
 -0.6665009265557171E-04   6   3   4   1
  0.5761221001862720E-02   6   3   4   2
 -0.5448993109136198E-02   6   3   4   3
 -0.1570874203404309E-01   6   3   4   4
 -0.5293616217582967E-02   6   3   5   1
  0.1772518902408967E-02   6   3   5   2
  0.4181980306471471E-02   6   3   5   3
  0.2570701571027029E-01   6   3   5   4
 -0.9736612697869467E-03   6   3   5   5
 -0.8807298657923159E-03   6   3   6   1
 -0.5333613846912746E-04   6   3   6   2
  0.1916235600990203E-01   6   3   6   3
  0.6745071388551557E-02   6   4   1   1
  0.4091617061637676E-03   6   4   2   1
  0.1042863623417834E-01   6   4   2   2
  0.1088992934330845E-02   6   4   3   1
  0.7775511753609416E-03   6   4   3   2
  0.1798845401202669E-01   6   4   3   3
 -0.8009190145906681E-04   6   4   4   1
  0.1241034595609763E-02   6   4   4   2
 -0.2486943297567181E-02   6   4   4   3
  0.2389486428300895E-01   6   4   4   4
 -0.3425895472654072E-03   6   4   5   1
 -0.2098729887241437E-02   6   4   5   2
  0.6464732755316428E-02   6   4   5   3
 -0.2198987064794213E-01   6   4   5   4
  0.5080264010983614E-01   6   4   5   5
 -0.1801253060551629E-04   6   4   6   1
  0.8573854825018497E-02   6   4   6   2
 -0.8939694066648350E-04   6   4   6   3
  0.4107569523228490E-01   6   4   6   4
 -0.8719692587206217E-02   6   5   1   1
 -0.9445374633727558E-03   6   5   2   1
 -0.1871221237631294E-01   6   5   2   2
  0.6666775419180527E-02   6   5   3   1
  0.4382526034170640E-01   6   5   3   2
 -0.1312384855620531E-01   6   5   3   3
  0.5495595158936359E-03   6   5   4   1
 -0.3594430154738281E-02   6   5   4   2
  0.9911304882497449E-02   6   5   4   3
 -0.6001545245224159E-01   6   5   4   4
 -0.1678456540858417E-02   6   5   5   1
  0.1256948421857268E-01   6   5   5   2
 -0.7972767799905656E-03   6   5   5   3
  0.9005439338394793E-01   6   5   5   4
 -0.1439557842362538E-01   6   5   5   5
 -0.2325795954382441E-03   6   5   6   1
  0.3729039395166874E-02   6   5   6   2
  0.2043359452451934E-01   6   5   6   3
 -0.5840320096950290E-02   6   5   6   4
  0.8743856004364349E-01   6   5   6   5
  0.6874451073573893E+00   6   6   1   1
 -0.3079128838977818E-03   6   6   2   1
  0.6790986466094860E+00   6   6   2   2
 -0.5191599919077310E-03   6   6   3   1
 -0.5316498347516499E-03   6   6   3   2
  0.6908415475485723E+00   6   6   3   3
  0.1563450221456694E-03   6   6   4   1
 -0.7650778098231559E-02   6   6   4   2
  0.2337386125697734E-03   6   6   4   3
  0.5933470507390531E+00   6   6   4   4
  0.2026119410973408E-03   6   6   5   1
 -0.2806723918625336E-02   6   6   5   2
 -0.4393721722388513E-02   6   6   5   3
 -0.2173182094768833E-01   6   6   5   4
  0.5975153380157250E+00   6   6   5   5
  0.1280432120170792E-03   6   6   6   1
  0.6723871363193206E-02   6   6   6   2
 -0.3379829741048633E-03   6   6   6   3
  0.3332650237141335E-01   6   6   6   4
 -0.1118419426872917E-01   6   6   6   5
  0.5461681003324426E+00   6   6   6   6
 -0.1729205460705005E-15   7   1   1   1
  0.3746498272128004E-16   7   1   2   1
 -0.1221655916951893E-16   7   1   2   2
 -0.6374243294379660E-19   7   1   3   1
 -0.3055316145387665E-18   7   1   3   2
 -0.1115607007427088E-16   7   1   3   3
 -0.1252899684983734E-16   7   1   4   1
  0.4002169211089630E-17   7   1   4   2
 -0.4171260044650086E-18   7   1   4   3
 -0.1672499190458530E-17   7   1   4   4
 -0.2765748486849600E-17   7   1   5   1
  0.9395566934210562E-18   7   1   5   2
  0.3272300524103239E-17   7   1   5   3
 -0.1715783870126060E-18   7   1   5   4
 -0.1387267051745728E-17   7   1   5   5
  0.4857080322191137E-18   7   1   6   1
  0.3988535195514193E-19   7   1   6   2
  0.4808853967092719E-18   7   1   6   3
  0.7487040188925189E-19   7   1   6   4
 -0.1301971060380783E-18   7   1   6   5
 -0.4290367084659548E-18   7   1   6   6
  0.7491429877537260E-04   7   1   7   1
  0.1978710369698797E-15   7   2   1   1
 -0.1316632005976093E-16   7   2   2   1
  0.8607260417721915E-16   7   2   2   2
 -0.3230230285187424E-18   7   2   3   1
 -0.1983988303066513E-18   7   2   3   2
  0.9318719542579631E-16   7   2   3   3
  0.4070180283550417E-17   7   2   4   1
 -0.2089012801468617E-16   7   2   4   2
  0.3316660482311838E-17   7   2   4   3
  0.7167298178954746E-17   7   2   4   4
  0.9936854452914259E-18   7   2   5   1
 -0.4537345656856640E-17   7   2   5   2
 -0.2030556933775199E-16   7   2   5   3
  0.1141255925565910E-17   7   2   5   4
  0.4857413744922712E-17   7   2   5   5
  0.4855586693061266E-19   7   2   6   1
  0.4283209495589423E-17   7   2   6   2
 -0.3064610154626501E-17   7   2   6   3
  0.2481590272390895E-17   7   2   6   4
  0.2078670248157391E-17   7   2   6   5
 -0.5297206822116917E-17   7   2   6   6
  0.3959803590556244E-03   7   2   7   1
  0.7981818964881860E-02   7   2   7   2
  0.4259860734952153E-18   7   3   1   1
 -0.2457532544924942E-19   7   3   2   1
  0.1260383826626414E-17   7   3   2   2
  0.1003167056761265E-16   7   3   3   1
  0.1032727844846889E-16   7   3   3   2
  0.1331525080623757E-17   7   3   3   3
  0.4645262315102610E-18   7   3   4   1
  0.1266415288755230E-17   7   3   4   2
 -0.7561431682956215E-17   7   3   4   3
  0.5354333506470395E-17   7   3   4   4
 -0.2952203277035235E-17   7   3   5   1
 -0.6649906942128787E-17   7   3   5   2
 -0.1397650078080857E-17   7   3   5   3
 -0.1007367575012802E-16   7   3   5   4
  0.3074099369834413E-18   7   3   5   5
 -0.4794606818100344E-18   7   3   6   1
 -0.9782060292508188E-18   7   3   6   2
 -0.8160266925215446E-18   7   3   6   3
  0.7695101584247637E-18   7   3   6   4
 -0.8552582472308813E-17   7   3   6   5
 -0.3843005519728719E-19   7   3   6   6
  0.3653878109211351E-05   7   3   7   1
  0.6136414782101630E-04   7   3   7   2
  0.1513338252395778E-02   7   3   7   3
 -0.1931183040407477E-15   7   4   1   1
  0.4494971889093525E-17   7   4   2   1
 -0.1551893120467715E-15   7   4   2   2
  0.1522623066149897E-17   7   4   3   1
  0.6038324721551244E-17   7   4   3   2
 -0.1616147126116336E-15   7   4   3   3
 -0.1413189288052316E-17   7   4   4   1
  0.8856041848053502E-17   7   4   4   2
 -0.7951001981042869E-18   7   4   4   3
 -0.8197710865775675E-16   7   4   4   4
 -0.7402869478377163E-18   7   4   5   1
  0.2713269923720885E-17   7   4   5   2
  0.7498623540525613E-17   7   4   5   3
  0.3354920626443451E-17   7   4   5   4
 -0.8013878520069183E-16   7   4   5   5
  0.3386198531090221E-21   7   4   6   1
  0.2635271248453023E-17   7   4   6   2
  0.2971383388349350E-17   7   4   6   3
  0.9553862246907847E-17   7   4   6   4
  0.6702553623976689E-17   7   4   6   5
 -0.8384425524944555E-16   7   4   6   6
  0.2286680645414661E-04   7   4   7   1
  0.6628202493687121E-02   7   4   7   2
 -0.1768389560859684E-03   7   4   7   3
  0.2768523412395392E-01   7   4   7   4
 -0.6488804001851582E-16   7   5   1   1
  0.1063443901634119E-17   7   5   2   1
 -0.5602503106273740E-16   7   5   2   2
 -0.8211992012019753E-17   7   5   3   1
 -0.3330988237510335E-16   7   5   3   2
 -0.5759247582686593E-16   7   5   3   3
 -0.6876723458422307E-18   7   5   4   1
  0.2869552937790516E-17   7   5   4   2
 -0.2618408389584679E-17   7   5   4   3
 -0.2923495499546603E-16   7   5   4   4
  0.2148129158812907E-17   7   5   5   1
 -0.4561324486525972E-17   7   5   5   2
  0.2820704761777345E-17   7   5   5   3
 -0.2777642708347686E-16   7   5   5   4
 -0.4279440177770183E-16   7   5   5   5
  0.3924206668390317E-18   7   5   6   1
  0.1013162313745661E-17   7   5   6   2
 -0.9823520284301070E-17   7   5   6   3
  0.4858889890516895E-17   7   5   6   4
 -0.1573410143387119E-16   7   5   6   5
 -0.3994772958563774E-16   7   5   6   6
  0.1483394810814037E-04   7   5   7   1
  0.1901390465036856E-02   7   5   7   2
  0.1305675625073920E-02   7   5   7   3
  0.4952007783495674E-02   7   5   7   4
  0.8976364802602298E-02   7   5   7   5
  0.1149425340807476E-15   7   6   1   1
 -0.2068722854136748E-18   7   6   2   1
  0.1112524246714736E-15   7   6   2   2
 -0.1343139500637915E-17   7   6   3   1
 -0.5321383547941438E-17   7   6   3   2
  0.1017525463126350E-15   7   6   3   3
  0.3994207820519146E-19   7   6   4   1
 -0.3082096892375691E-17   7   6   4   2
  0.7210126437675955E-18   7   6   4   3
  0.7563716667688875E-16   7   6   4   4
  0.4038843707649445E-18   7   6   5   1
 -0.3377078324631678E-18   7   6   5   2
 -0.6528201048504070E-17   7   6   5   3
  0.2324288655199081E-17   7   6   5   4
  0.5636221004832094E-16   7   6   5   5
 -0.1303861821500128E-18   7   6   6   1
 -0.1123988774381767E-16   7   6   6   2
 -0.2684261528721063E-17   7   6   6   3
 -0.2687320678657292E-16   7   6   6   4
 -0.1021311335275880E-16   7   6   6   5
  0.6746169665778437E-16   7   6   6   6
 -0.9158278936855467E-04   7   6   7   1
 -0.5120904103180316E-02   7   6   7   2
  0.1462886630672016E-03   7   6   7   3
 -0.1834422407448125E-01   7   6   7   4
 -0.3894830160909066E-02   7   6   7   5
  0.1732564311125324E-01   7   6   7   6
  0.6170998634167560E+00   7   7   1   1
 -0.1062982858473088E-03   7   7   2   1
  0.6118530416246271E+00   7   7   2   2
 -0.1481934243217544E-02   7   7   3   1
 -0.8143668711914293E-02   7   7   3   2
  0.6057193245261356E+00   7   7   3   3
  0.3546327314263992E-04   7   7   4   1
 -0.5966243638973398E-02   7   7   4   2
 -0.7592748799766583E-03   7   7   4   3
  0.5439270376962297E+00   7   7   4   4
  0.4368727699816536E-03   7   7   5   1
 -0.3406470207634005E-02   7   7   5   2
 -0.7689046852479134E-02   7   7   5   3
 -0.2001676931408982E-01   7   7   5   4
  0.5115125160439549E+00   7   7   5   5
 -0.3920178795940323E-04   7   7   6   1
 -0.4673905702273650E-02   7   7   6   2
 -0.4564358578549928E-02   7   7   6   3
 -0.8973472064563007E-02   7   7   6   4
 -0.2590178686490581E-01   7   7   6   5
  0.4772586874613618E+00   7   7   6   6
 -0.1625491362764221E-18   7   7   7   1
  0.3082947770740555E-17   7   7   7   2
  0.1276276367714519E-17   7   7   7   3
 -0.1665940854044888E-16   7   7   7   4
 -0.2920491876488239E-16   7   7   7   5
  0.2353666400432537E-16   7   7   7   6
  0.4772206322048225E+00   7   7   7   7
 -0.8556213743199288E-01   8   1   1   1
  0.1854970465770290E-01   8   1   2   1
 -0.5995608320746242E-02   8   1   2   2
 -0.1885430006577254E-02   8   1   3   1
 -0.1599126542800960E-02   8   1   3   2
 -0.4285083216877549E-02   8   1   3   3
 -0.6287596905822646E-02   8   1   4   1
  0.1956759797143884E-02   8   1   4   2
  0.1689632286538126E-03   8   1   4   3
 -0.7134030747754385E-03   8   1   4   4
 -0.7996345607364120E-03   8   1   5   1
  0.6733278287993471E-03   8   1   5   2
  0.1483976478693960E-02   8   1   5   3
 -0.3250481472371049E-03   8   1   5   4
 -0.6149557920988797E-03   8   1   5   5
  0.3402544337480049E-03   8   1   6   1
  0.9455154296573068E-04   8   1   6   2
 -0.3126335858534565E-04   8   1   6   3
  0.2592763406932580E-04   8   1   6   4
 -0.1337688060903758E-03   8   1   6   5
 -0.8020169449464517E-04   8   1   6   6
  0.3454736948073915E-17   8   1   7   1
 -0.1750019066144609E-17   8   1   7   2
 -0.1524159788668400E-18   8   1   7   3
  0.3735181265956709E-18   8   1   7   4
  0.1915624189343315E-18   8   1   7   5
  0.7603921328381654E-19   8   1   7   6
 -0.9543220106670761E-04   8   1   7   7
  0.1800296749366887E-02   8   1   8   1
  0.9822066462504352E-01   8   2   1   1
 -0.6511375232695144E-02   8   2   2   1
  0.4280730062821692E-01   8   2   2   2
 -0.9201428563083598E-03   8   2   3   1
 -0.1243772739279965E-02   8   2   3   2
  0.5693045628466051E-01   8   2   3   3
  0.1991870035749748E-02   8   2   4   1
 -0.1015923535329662E-01   8   2   4   2
  0.2175293500264408E-02   8   2   4   3
  0.4147078127157762E-02   8   2   4   4
  0.7052567570709508E-03   8   2   5   1
 -0.1966705386589027E-02   8   2   5   2
 -0.9963288218639042E-02   8   2   5   3
  0.1714957824239425E-03   8   2   5   4
  0.6287563592767084E-02   8   2   5   5
  0.9886416924286066E-04   8   2   6   1
  0.2989901477894311E-02   8   2   6   2
 -0.1514231612644297E-02   8   2   6   3
  0.2072086435625309E-02   8   2   6   4
  0.1432902314554253E-02   8   2   6   5
  0.3450251717784565E-02   8   2   6   6
 -0.1749822269823505E-17   8   2   7   1
 -0.6553072934165044E-17   8   2   7   2
 -0.4552624463590241E-18   8   2   7   3
 -0.1224389213675526E-16   8   2   7   4
 -0.3374858924905570E-17   8   2   7   5
  0.6048028751519514E-17   8   2   7   6
  0.8187982278335491E-04   8   2   7   7
 -0.5244964685765250E-03   8   2   8   1
  0.3439760788308375E-02   8   2   8   2
 -0.1788047278699817E-01   8   3   1   1
  0.7948630683840790E-03   8   3   2   1
 -0.8076359480386723E-02   8   3   2   2
  0.1181107737994984E-01   8   3   3   1
  0.2856510890039372E-01   8   3   3   2
 -0.9412448946512246E-02   8   3   3   3
  0.2827065359126029E-03   8   3   4   1
  0.2256049591468421E-02   8   3   4   2
 -0.5557616471874778E-02   8   3   4   3
 -0.3118847403658220E-02   8   3   4   4
 -0.3400483745029274E-02   8   3   5   1
 -0.2616690748170809E-02   8   3   5   2
  0.2860666395920069E-03   8   3   5   3
  0.4939138885356112E-02   8   3   5   4
  0.7342612397722348E-04   8   3   5   5
 -0.5584269062071924E-03   8   3   6   1
 -0.4977837910714604E-03   8   3   6   2
  0.6260131004421916E-02   8   3   6   3
  0.3199450497836966E-03   8   3   6   4
  0.3179177122308901E-02   8   3   6   5
 -0.1383171742466094E-03   8   3   6   6
  0.1166459674864639E-18   8   3   7   1
 -0.1050699007736258E-17   8   3   7   2
 -0.6901903129973893E-18   8   3   7   3
  0.9885498466622082E-18   8   3   7   4
 -0.4115655707898043E-17   8   3   7   5
 -0.8954578503319903E-18   8   3   7   6
 -0.9017321181685801E-03   8   3   7   7
 -0.1034626426972728E-03   8   3   8   1
 -0.6063890477720264E-03   8   3   8   2
  0.3059468382178270E-02   8   3   8   3
 -0.8997498867119660E-01   8   4   1   1
  0.2259734492111668E-02   8   4   2   1
 -0.7088526781289237E-01   8   4   2   2
  0.1006311426134550E-02   8   4   3   1
  0.2803830270770922E-02   8   4   3   2
 -0.7122960312983383E-01   8   4   3   3
 -0.6970727215108285E-03   8   4   4   1
  0.4656730799709191E-02   8   4   4   2
 -0.1229661576395738E-02   8   4   4   3
 -0.3162419023621237E-01   8   4   4   4
 -0.4430972274759105E-03   8   4   5   1
  0.6911284987255318E-03   8   4   5   2
  0.5810423835349143E-02   8   4   5   3
 -0.5193461083629537E-02   8   4   5   4
 -0.2168497514203859E-01   8   4   5   5
 -0.1125156328258967E-04   8   4   6   1
  0.1987203818453751E-02   8   4   6   2
  0.1348174288807570E-02   8   4   6   3
  0.9580684083645041E-02   8   4   6   4
 -0.7139513838749068E-03   8   4   6   5
 -0.1822230003347697E-01   8   4   6   6
  0.3950453619240229E-18   8   4   7   1
 -0.1214460599968577E-16   8   4   7   2
  0.2514199979635688E-18   8   4   7   3
 -0.2849880563925331E-16   8   4   7   4
 -0.4619554789824689E-17   8   4   7   5
  0.1323405585809683E-16   8   4   7   6
 -0.2272381159117128E-01   8   4   7   7
  0.2022056716722562E-03   8   4   8   1
 -0.5293403134590509E-03   8   4   8   2
  0.4354377862588265E-03   8   4   8   3
  0.8615173145698835E-02   8   4   8   4
 -0.2693029660136107E-01   8   5   1   1
  0.2335323025602909E-03   8   5   2   1
 -0.2567165506820664E-01   8   5   2   2
 -0.1646991831827584E-02   8   5   3   1
 -0.6223671567872572E-03   8   5   3   2
 -0.2483761265904167E-01   8   5   3   3
 -0.1551041995035251E-03   8   5   4   1
  0.1448298702175638E-03   8   5   4   2
  0.2221094898504535E-02   8   5   4   3
 -0.2733516610517962E-01   8   5   4   4
  0.4548078660918544E-03   8   5   5   1
  0.2272123677662206E-02   8   5   5   2
  0.1086748667197424E-02   8   5   5   3
  0.1743054936008835E-01   8   5   5   4
 -0.1841509962133536E-01   8   5   5   5
  0.9816556269425102E-04   8   5   6   1
  0.9698919257835736E-03   8   5   6   2
  0.2024864208621977E-02   8   5   6   3
 -0.1530531168968781E-02   8   5   6   4
  0.1912750199664383E-01   8   5   6   5
 -0.1429434624621188E-01   8   5   6   6
  0.4037707155753617E-19   8   5   7   1
 -0.2989446713268393E-17   8   5   7   2
 -0.3329801164411144E-17   8   5   7   3
 -0.4594989579259530E-17   8   5   7   4
 -0.1084244505258827E-16   8   5   7   5
  0.2073185841289741E-17   8   5   7   6
 -0.1685487624840889E-01   8   5   7   7
  0.5753226198914750E-04   8   5   8   1
  0.1523275952129404E-03   8   5   8   2
  0.4315261189252409E-04   8   5   8   3
  0.6672263915918804E-03   8   5   8   4
  0.7099082291072468E-02   8   5   8   5
  0.9990215232447659E-01   8   6   1   1
 -0.1610530372669859E-03   8   6   2   1
  0.9701061010722693E-01   8   6   2   2
 -0.3994450467721541E-03   8   6   3   1
 -0.4508778137423158E-03   8   6   3   2
  0.9890931313974313E-01   8   6   3   3
  0.5585847887413977E-04   8   6   4   1
 -0.2286202261250918E-02   8   6   4   2
  0.5866825367497976E-03   8   6   4   3
  0.7168831634622709E-01   8   6   4   4
  0.1332781811597384E-03   8   6   5   1
 -0.3075373435889421E-03   8   6   5   2
 -0.2124019693991439E-02   8   6   5   3
 -0.1306122078851749E-02   8   6   5   4
  0.7406120005341116E-01   8   6   5   5
  0.3711594104549118E-04   8   6   6   1
  0.4909334148329049E-03   8   6   6   2
 -0.1159669458337220E-03   8   6   6   3
  0.7734032345753417E-02   8   6   6   4
  0.5055937402263051E-03   8   6   6   5
  0.6215772409724537E-01   8   6   6   6
  0.3499749621965863E-19   8   6   7   1
  0.6549773244917939E-17   8   6   7   2
 -0.3967178178981781E-18   8   6   7   3
  0.7295520257932829E-17   8   6   7   4
 -0.2044210844138523E-18   8   6   7   5
 -0.2280611927359232E-17   8   6   7   6
  0.4223003976706663E-01   8   6   7   7
 -0.2167243124884884E-04   8   6   8   1
  0.6040612728290531E-03   8   6   8   2
 -0.1046013618427257E-03   8   6   8   3
 -0.5328792089367039E-02   8   6   8   4
 -0.1390579338804173E-02   8   6   8   5
  0.1839708893789118E-01   8   6   8   6
 -0.3969222173984688E-15   8   7   1   1
 -0.1115182609605541E-17   8   7   2   1
 -0.3995523831443036E-15   8   7   2   2
  0.9532271857454786E-18   8   7   3   1
  0.5938223545311713E-17   8   7   3   2
 -0.3907209257436474E-15   8   7   3   3
  0.3099954188313749E-18   8   7   4   1
  0.6823529725372964E-17   8   7   4   2
  0.3612060425610621E-18   8   7   4   3
 -0.3109525855689373E-15   8   7   4   4
 -0.2111736692819528E-18   8   7   5   1
  0.3120636607553447E-17   8   7   5   2
  0.8611900757277524E-17   8   7   5   3
  0.1422287200856604E-16   8   7   5   4
 -0.2748245644931963E-15   8   7   5   5
  0.5604993024544851E-19   8   7   6   1
  0.4188311480788286E-17   8   7   6   2
  0.3952467456529064E-17   8   7   6   3
  0.1079806924478718E-16   8   7   6   4
  0.2375793078176381E-16   8   7   6   5
 -0.2350281960076376E-15   8   7   6   6
 -0.3139628131439907E-04   8   7   7   1
 -0.2153968684069704E-02   8   7   7   2
  0.8681738128229093E-05   8   7   7   3
 -0.1487304534800892E-02   8   7   7   4
 -0.1391209316601040E-02   8   7   7   5
 -0.1403017453831414E-02   8   7   7   6
 -0.2029837491440118E-15   8   7   7   7
  0.6078744053522627E-19   8   7   8   1
  0.3229899551760829E-17   8   7   8   2
  0.7761791719754953E-18   8   7   8   3
  0.3170739825873674E-16   8   7   8   4
  0.1918787425568114E-16   8   7   8   5
 -0.4269234933127312E-16   8   7   8   6
  0.8186935028837498E-02   8   7   8   7
  0.3271334589989228E+00   8   8   1   1
 -0.6543530572586664E-03   8   8   2   1
  0.3212842258647626E+00   8   8   2   2
 -0.7079710397460827E-03   8   8   3   1
 -0.3025591969461891E-02   8   8   3   2
  0.3219375892132627E+00   8   8   3   3
  0.1894800978888660E-03   8   8   4   1
 -0.1705797232238668E-02   8   8   4   2
 -0.1833576811993186E-03   8   8   4   3
  0.3076699668234259E+00   8   8   4   4
  0.2457026441980347E-03   8   8   5   1
 -0.1079516336687066E-02   8   8   5   2
 -0.2000746150560846E-02   8   8   5   3
 -0.7985772456250402E-02   8   8   5   4
  0.3026711885967759E+00   8   8   5   5
  0.2498017056796272E-04   8   8   6   1
 -0.3273005447929289E-03   8   8   6   2
 -0.1368950924712183E-02   8   8   6   3
  0.1912030483526889E-02   8   8   6   4
 -0.6427882720233456E-02   8   8   6   5
  0.2935968076384928E+00   8   8   6   6
 -0.7703751254437198E-19   8   8   7   1
  0.7157147463344621E-17   8   8   7   2
  0.3515315745079437E-18   8   8   7   3
 -0.3214606209398898E-17   8   8   7   4
 -0.7110277596161268E-17   8   8   7   5
  0.6419709138988395E-17   8   8   7   6
  0.2882431254145659E+00   8   8   7   7
 -0.6479498986935572E-04   8   8   8   1
  0.3303994674987310E-03   8   8   8   2
 -0.2915481913439801E-03   8   8   8   3
 -0.3468121029988586E-02   8   8   8   4
 -0.4306478182433423E-02   8   8   8   5
  0.1195535240715724E-01   8   8   8   6
 -0.7792878059439909E-16   8   8   8   7
  0.2294668029059089E+00   8   8   8   8
  0.7512971295405689E-01   9   1   1   1
 -0.1630241187134756E-01   9   1   2   1
  0.5270025062133142E-02   9   1   2   2
  0.2675793090252904E-02   9   1   3   1
  0.2191967939022029E-02   9   1   3   2
  0.4016379633337086E-02   9   1   3   3
  0.5574355795032591E-02   9   1   4   1
 -0.1694325055515487E-02   9   1   4   2
 -0.3264338199753820E-03   9   1   4   3
  0.6073984119646400E-03   9   1   4   4
  0.3883780629970449E-03   9   1   5   1
 -0.7114843149919716E-03   9   1   5   2
 -0.1400573129487779E-02   9   1   5   3
  0.4035995343229237E-03   9   1   5   4
  0.6235516401596496E-03   9   1   5   5
 -0.3433117706650883E-03   9   1   6   1
 -0.6770126406453012E-04   9   1   6   2
  0.1493146801568913E-03   9   1   6   3
 -0.1201091916802934E-04   9   1   6   4
  0.1638067304652554E-03   9   1   6   5
  0.1086289397252440E-03   9   1   6   6
 -0.3094129332913880E-17   9   1   7   1
  0.1237489197922222E-17   9   1   7   2
  0.2051585126013424E-18   9   1   7   3
 -0.3366694485584349E-18   9   1   7   4
 -0.2341554042160810E-18   9   1   7   5
 -0.1298334697353513E-19   9   1   7   6
  0.9924004978344019E-04   9   1   7   7
 -0.1595687189122894E-02   9   1   8   1
  0.4629627703203737E-03   9   1   8   2
  0.1730273486659488E-03   9   1   8   3
 -0.1705145375264615E-03   9   1   8   4
 -0.6107889514396764E-04   9   1   8   5
  0.2129995534588750E-04   9   1   8   6
 -0.2258900396664932E-19   9   1   8   7
  0.7588911945923275E-04   9   1   8   8
  0.1422616725686938E-02   9   1   9   1
 -0.8591131519892489E-01   9   2   1   1
  0.5722088005016139E-02   9   2   2   1
 -0.3726447225788430E-01   9   2   2   2
  0.1178229061735593E-02   9   2   3   1
  0.1477970183836848E-02   9   2   3   2
 -0.4768884745403058E-01   9   2   3   3
 -0.1732668783267131E-02   9   2   4   1
  0.8957773112345890E-02   9   2   4   2
 -0.2189793201876014E-02   9   2   4   3
 -0.3290501084371843E-02   9   2   4   4
 -0.7316827073801805E-03   9   2   5   1
  0.1394034172494328E-02   9   2   5   2
  0.8663836575085956E-02   9   2   5   3
 -0.7496239367254777E-03   9   2   5   4
 -0.4775502787288107E-02   9   2   5   5
 -0.6991893182383489E-04   9   2   6   1
 -0.1960235007852664E-02   9   2   6   2
  0.1292126068653596E-02   9   2   6   3
 -0.1150856506433897E-02   9   2   6   4
 -0.1459572965934119E-02   9   2   6   5
 -0.2575723108696224E-02   9   2   6   6
  0.1240110616341827E-17   9   2   7   1
 -0.2057732803582019E-18   9   2   7   2
  0.5244370217563092E-18   9   2   7   3
  0.5748237552000938E-17   9   2   7   4