 &FCI NORB=  8,NELEC=  8,MS2= 0,
  ORBSYM=1,1,1,1,1,1,1,1,
  ISYM=1,
 /
  0.6842852977732525E+00   1   1   1   1
 -0.2468345660551422E-04   2   1   1   1
  0.3517048084013884E-04   2   1   2   1
  0.2110126232777696E+00   2   2   1   1
 -0.1094559875238045E-03   2   2   2   1
  0.6954487675387501E+00   2   2   2   2
 -0.3637967264224245E-04   3   1   1   1
  0.1143527705832275E-06   3   1   2   1
  0.2295135853518153E-04   3   1   2   2
  0.1482000982541035E-07   3   1   3   1
 -0.2014587628679062E-04   3   2   1   1
  0.6204867885328600E-05   3   2   2   1
 -0.9919284669561186E-05   3   2   2   2
  0.1118430754862163E-06   3   2   3   1
  0.3463195116718831E-04   3   2   3   2
  0.1092481467519508E+00   3   3   1   1
 -0.4222110182197820E-04   3   3   2   1
  0.2116980343396303E+00   3   3   2   2
 -0.3759757805138771E-04   3   3   3   1
 -0.8682609526041753E-04   3   3   3   2
  0.6953269341832803E+00   3   3   3   3
 -0.7222575400110672E-07   4   1   1   1
 -0.3416455239484329E-09   4   1   2   1
  0.2379324131183997E-07   4   1   2   2
  0.1301372792465811E-10   4   1   3   1
  0.3025629488513136E-10   4   1   3   2
  0.3245943551510560E-08   4   1   3   3
  0.5092814557314990E-13   4   1   4   1
 -0.7222778253197738E-06   4   2   1   1
  0.6932992235356744E-08   4   2   2   1
 -0.3571853567386260E-05   4   2   2   2
 -0.1144519126015790E-09   4   2   3   1
  0.3765691220775192E-07   4   2   3   2
  0.2154980653305568E-05   4   2   3   3
  0.5666290668431271E-12   4   2   4   1
  0.2242190017407697E-09   4   2   4   2
  0.7951294574961534E-05   4   3   1   1
  0.5209903874620119E-08   4   3   2   1
  0.3256304193864207E-04   4   3   2   2
 -0.1061963605198660E-07   4   3   3   1
  0.3764670150221203E-06   4   3   3   2
  0.1852353148427547E-03   4   3   3   3
 -0.1028987864451983E-09   4   3   4   1
 -0.1310177285234206E-08   4   3   4   2
  0.5622497427601330E-06   4   3   4   3
  0.6277215931033533E-01   4   4   1   1
  0.4336134894752019E-05   4   4   2   1
  0.8737843646203509E-01   4   4   2   2
 -0.3040305078539391E-05   4   4   3   1
  0.2026597452499477E-04   4   4   3   2
  0.1422165773318956E+00   4   4   3   3
 -0.7222721680371086E-07   4   4   4   1
 -0.3438866751984127E-05   4   4   4   2
  0.1865432631369945E-03   4   4   4   3
  0.6842854911538951E+00   4   4   4   4
 -0.1865360103638645E-03   5   1   1   1
 -0.1246430765179334E-05   5   1   2   1
  0.5773895310970814E-04   5   1   2   2
  0.4644907655384495E-07   5   1   3   1
  0.1118440796577427E-06   5   1   3   2
 -0.8630660392661951E-04   5   1   3   3
  0.1028929238938326E-09   5   1   4   1
 -0.8649081327433209E-09   5   1   4   2
 -0.3585290508291031E-07   5   1   4   3
 -0.7951328210894029E-05   5   1   4   4
  0.5622122746634133E-06   5   1   5   1
 -0.1399733274251531E-02   5   2   1   1
  0.2391171164491906E-04   5   2   2   1
 -0.4405438652931733E-02   5   2   2   2
  0.7704576193607890E-06   5   2   3   1
  0.1100341207377650E-03   5   2   3   2
 -0.2151025572425311E-02   5   2   3   3
  0.3713363344080295E-09   5   2   4   1
  0.4307152240360879E-06   5   2   4   2
 -0.1446466225256841E-05   5   2   4   3
 -0.2565421394287749E-03   5   2   4   4
  0.2439824470216970E-05   5   2   5   1
  0.3388646602641169E-02   5   2   5   2
  0.4022645416813851E-03   5   3   1   1
  0.1164913762480335E-04   5   3   2   1
  0.2178491112445593E-02   5   3   2   2
 -0.2506498912297778E-05   5   3   3   1
 -0.1061483896007885E-03   5   3   3   2
  0.4463171816035257E-02   5   3   3   3
 -0.1056484876058496E-08   5   3   4   1
 -0.9198286711675362E-07   5   3   4   2
 -0.1850324646213322E-05   5   3   4   3
  0.4022679954541069E-03   5   3   4   4
  0.1850316280819324E-05   5   3   5   1
  0.1342200395870280E-03   5   3   5   2
  0.3235477814261218E-02   5   3   5   3
  0.3040319236677535E-05   5   4   1   1
  0.2105843966296179E-07   5   4   2   1
  0.1521051355289026E-04   5   4   2   2
  0.1123574228945097E-08   5   4   3   1
 -0.1729878482154643E-07   5   4   3   2
 -0.1078906009959651E-04   5   4   3   3
 -0.1301353800627809E-10   5   4   4   1
 -0.9796046281609144E-09   5   4   4   2
  0.4645160582276235E-07   5   4   4   3
  0.3638030654742759E-04   5   4   4   4
 -0.1061677319694418E-07   5   4   5   1
  0.2115387698016946E-07   5   4   5   2
  0.2506516276714794E-05   5   4   5   3
  0.1482034674794923E-07   5   4   5   4
  0.1422160853128280E+00   5   5   1   1
  0.1679406494534421E-03   5   5   2   1
  0.3433040780527998E+00   5   5   2   2
  0.1078883218359734E-04   5   5   3   1
  0.9150240456846995E-03   5   5   3   2
  0.3400884145669241E+00   5   5   3   3
  0.3246222640378216E-08   5   5   4   1
  0.9272271073452586E-06   5   5   4   2
  0.8630761052707146E-04   5   5   4   3
  0.1092484232100331E+00   5   5   4   4
 -0.1852321773044584E-03   5   5   5   1
 -0.4406492571822684E-02   5   5   5   2
  0.4463162006183491E-02   5   5   5   3
  0.3759783545020590E-04   5   5   5   4
  0.6953266769783787E+00   5   5   5   5
  0.4771987784516428E-07   6   1   1   1
  0.5376428884985773E-08   6   1   2   1
  0.2020860499846594E-07   6   1   2   2
  0.1835903265696304E-10   6   1   3   1
  0.5688608156750632E-09   6   1   3   2
  0.2730733476262521E-07   6   1   3   3
 -0.1147649331706853E-12   6   1   4   1
  0.8053747566692464E-12   6   1   4   2
  0.1899101074348899E-09   6   1   4   3
  0.3793784351147212E-07   6   1   4   4
 -0.4478511770555222E-09   6   1   5   1
  0.4972632734376489E-08   6   1   5   2
 -0.4471995217265250E-08   6   1   5   3
  0.2575123186311108E-10   6   1   5   4
  0.1687020826546048E-06   6   1   5   5
  0.2146557297924297E-11   6   1   6   1
  0.7174234900515543E-05   6   2   1   1
 -0.1180167012212141E-07   6   2   2   1
  0.3795887539729386E-04   6   2   2   2
  0.1447899980592163E-08   6   2   3   1
 -0.1112692953890367E-06   6   2   3   2
 -0.2307607159787042E-04   6   2   3   3
 -0.2271705510138247E-11   6   2   4   1
 -0.1005928958642400E-08   6   2   4   2
 -0.1454440234670580E-08   6   2   4   3
  0.1535831914326512E-04   6   2   4   4
  0.1450278038461743E-07   6   2   5   1
 -0.2610957525204055E-05   6   2   5   2
  0.7975069636372872E-06   6   2   5   3
  0.3403086552482630E-08   6   2   5   4
 -0.1075040583173891E-04   6   2   5   5
 -0.2289731345694791E-10   6   2   6   1
  0.1538128423142556E-07   6   2   6   2
  0.2285060879613895E-05   6   3   1   1
 -0.5634353517215356E-06   6   3   2   1
  0.2460719274523577E-04   6   3   2   2
 -0.6148543795954823E-08   6   3   3   1
 -0.6196430494127447E-05   6   3   3   2
  0.3575334415702309E-04   6   3   3   3
  0.1552981330311246E-09   6   3   4   1
 -0.4059389742112251E-08   6   3   4   2
 -0.1217061116564253E-05   6   3   4   3
 -0.1691909359610423E-03   6   3   4   4
  0.1653872676227538E-07   6   3   5   1
  0.1198337764296846E-04   6   3   5   2
  0.2293663570143155E-04   6   3   5   3
 -0.4870412773485069E-07   6   3   5   4
 -0.1977088036893675E-03   6   3   5   5
 -0.5262008781938418E-08   6   3   6   1
  0.1260495530512436E-06   6   3   6   2
  0.3486487210969174E-04   6   3   6   3
 -0.8688088158876375E-04   6   4   1   1
  0.3635149187886661E-06   6   4   2   1
 -0.2610205816866506E-03   6   4   2   2
  0.1200222891770885E-06   6   4   3   1
  0.2667140182928284E-05   6   4   3   2
 -0.1426974019609189E-02   6   4   3   3
  0.7045930810838879E-09   6   4   4   1
  0.4291752530392506E-06   6   4   4   2
 -0.2249066710787413E-05   6   4   4   3
 -0.3902830801408531E-02   6   4   4   4
  0.1532713748936093E-06   6   4   5   1
  0.1898065983421649E-05   6   4   5   2
 -0.3912520379408153E-04   6   4   5   3
 -0.2510929397125897E-05   6   4   5   4
 -0.4107304859547903E-03   6   4   5   5
  0.2649533053520717E-08   6   4   6   1
  0.9998675495027940E-08   6   4   6   2
 -0.2368063052458240E-04   6   4   6   3
  0.3370296183450460E-02   6   4   6   4
 -0.1584041749425353E-04   6   5   1   1
 -0.7665615229220606E-08   6   5   2   1
 -0.8899870482409410E-04   6   5   2   2
 -0.1384269857414168E-07   6   5   3   1
  0.1147499414606546E-06   6   5   3   2
  0.5566572586175033E-04   6   5   3   3
  0.3607663085745337E-10   6   5   4   1
  0.2382197556657534E-08   6   5   4   2
 -0.1086559423149795E-06   6   5   4   3
 -0.8673414001030772E-04   6   5   4   4
  0.8092187991336034E-07   6   5   5   1
 -0.1936594766696915E-05   6   5   5   2
 -0.3107753877471042E-05   6   5   5   3
 -0.4709790969958838E-07   6   5   5   4
 -0.1879663900199766E-03   6   5   5   5
 -0.4037989565115997E-09   6   5   6   1
 -0.4711858325939260E-07   6   5   6   2
  0.1112891284297234E-05   6   5   6   3
 -0.1849632555252331E-05   6   5   6   4
  0.5414661580233222E-06   6   5   6   5
  0.7334294716884369E-01   6   6   1   1
 -0.8257604765478594E-05   6   6   2   1
  0.1094104608158104E+00   6   6   2   2
 -0.7123624487718298E-05   6   6   3   1
 -0.3383900244437578E-04   6   6   3   2
  0.2115652813398531E+00   6   6   3   3
 -0.3093974205272902E-08   6   6   4   1
  0.9255930460268497E-06   6   6   4   2
 -0.5628241797478537E-04   6   6   4   3
  0.3421613553717420E+00   6   6   4   4
 -0.1514617868016013E-04   6   6   5   1
 -0.4054648462262153E-03   6   6   5   2
  0.1384874075959563E-02   6   6   5   3
 -0.1058983384689677E-04   6   6   5   4
  0.1419003272543272E+00   6   6   5   5
  0.2373348227285429E-07   6   6   6   1
  0.3823261854972133E-04   6   6   6   2
  0.9634510716488229E-04   6   6   6   3
 -0.4513929594065262E-02   6   6   6   4
 -0.1856437904382597E-03   6   6   6   5
  0.6955879370957772E+00   6   6   6   6
 -0.3902857510878972E-02   7   1   1   1
  0.1110256521393132E-03   7   1   2   1
 -0.2227185040827839E-02   7   1   2   2
  0.2510896818160886E-05   7   1   3   1
 -0.1209050085983057E-04   7   1   3   2
 -0.4107331175449511E-03   7   1   3   3
  0.7046556127857222E-09   7   1   4   1
  0.8039650079524587E-09   7   1   4   2
 -0.1532949431035304E-06   7   1   4   3
 -0.8688125730514125E-04   7   1   4   4
  0.2249077334511261E-05   7   1   5   1
 -0.3277448354783598E-04   7   1   5   2
 -0.3912479858814647E-04   7   1   5   3
 -0.1200235276555514E-06   7   1   5   4
 -0.1426972035412124E-02   7   1   5   5
  0.3504260405824965E-07   7   1   6   1
 -0.1316265989748196E-06   7   1   6   2
  0.8672067995588983E-06   7   1   6   3
  0.3418525966047862E-06   7   1   6   4
  0.4576848449819174E-06   7   1   6   5
 -0.1205174339070565E-03   7   1   6   6
  0.3370245685703677E-02   7   1   7   1
  0.2208464378197365E-02   7   2   1   1
 -0.1104362191932904E-03   7   2   2   1
  0.4462726658932168E-02   7   2   2   2
 -0.7842202231473555E-06   7   2   3   1
 -0.2282679973853072E-04   7   2   3   2
  0.1405105784776574E-02   7   2   3   3
 -0.3229843095724562E-09   7   2   4   1
 -0.1778986012638604E-07   7   2   4   2
  0.4417970929930623E-06   7   2   4   3
  0.1194958977008118E-03   7   2   4   4
 -0.5498425867446306E-05   7   2   5   1
  0.1411836046685748E-03   7   2   5   2
 -0.3139419957725665E-04   7   2   5   3
  0.1320237903903749E-06   7   2   5   4
  0.2221458032733732E-02   7   2   5   5
 -0.6624758048354887E-08   7   2   6   1
 -0.1283594861803290E-07   7   2   6   2
  0.2519608689993095E-05   7   2   6   3
 -0.3473552984924550E-05   7   2   6   4
 -0.1467275931573222E-05   7   2   6   5
  0.2569726070157355E-03   7   2   6   6
  0.1402468115836726E-03   7   2   7   1
  0.3267526348405875E-02   7   2   7   2
  0.8673436263290359E-04   7   3   1   1
 -0.1009637009328526E-06   7   3   2   1
 -0.5613297245166399E-04   7   3   2   2
 -0.4709961971896596E-07   7   3   3   1
  0.1187802744854006E-05   7   3   3   2
  0.1879683131448979E-03   7   3   3   3
 -0.3608276060523497E-10   7   3   4   1
  0.1279871293164913E-08   7   3   4   2
  0.8094467979159518E-07   7   3   4   3
  0.1584063143753614E-04   7   3   4   4
 -0.1086591877184694E-06   7   3   5   1
 -0.5238511641402511E-05   7   3   5   2
  0.3107948076883715E-05   7   3   5   3
 -0.1383994099511113E-07   7   3   5   4
 -0.5566808681057510E-04   7   3   5   5
  0.2865480209357488E-11   7   3   6   1
 -0.1579610286837765E-08   7   3   6   2
 -0.3867443550745098E-06   7   3   6   3
 -0.4576693027505958E-06   7   3   6   4
  0.1055828692963427E-06   7   3   6   5
  0.3355653209688020E-04   7   3   6   6
  0.1849573137971966E-05   7   3   7   1
  0.3239725340662441E-05   7   3   7   2
  0.5414782365904716E-06   7   3   7   3
  0.3794069146432794E-07   7   4   1   1
  0.3579408846872171E-09   7   4   2   1
  0.6125076224023212E-07   7   4   2   2
 -0.2575976524549611E-10   7   4   3   1
  0.1015732278147734E-08   7   4   3   2
  0.1686987148554156E-06   7   4   3   3
 -0.1147868696765031E-12   7   4   4   1
  0.8640508072573017E-11   7   4   4   2
  0.4478934542250521E-09   7   4   4   3
  0.4774302421187037E-07   7   4   4   4
 -0.1899615036858328E-09   7   4   5   1
  0.7059606878190965E-08   7   4   5   2
 -0.4471710437640078E-08   7   4   5   3
 -0.1835557940914670E-10   7   4   5   4
  0.2729967249094468E-07   7   4   5   5
  0.3253423013660328E-12   7   4   6   1
 -0.1162489339812780E-10   7   4   6   2
 -0.1022223571704194E-08   7   4   6   3
  0.3504238537858045E-07   7   4   6   4
 -0.2874656429966969E-11   7   4   6   5
  0.6285337161956095E-07   7   4   6   6
  0.2649537478493802E-08   7   4   7   1
 -0.3434657383583331E-07   7   4   7   2
  0.4038252487501476E-09   7   4   7   3
  0.2146631452311625E-11   7   4   7   4
  0.1691951757382400E-03   7   5   1   1
 -0.2696953019023862E-05   7   5   2   1
  0.9371174589812998E-03   7   5   2   2
 -0.4870886648088414E-07   7   5   3   1
 -0.2380345089078187E-05   7   5   3   2
  0.1977079309489117E-03   7   5   3   3
 -0.1553113420412367E-09   7   5   4   1
  0.3798762998387954E-08   7   5   4   2
  0.1655837763419472E-07   7   5   4   3
 -0.2285169421375364E-05   7   5   4   4
 -0.1217076921232891E-05   7   5   5   1
  0.1128602309938118E-03   7   5   5   2
 -0.2293722926020471E-04   7   5   5   3
 -0.6150354579019564E-08   7   5   5   4
 -0.3576180262758495E-04   7   5   5   5
  0.1022220520266089E-08   7   5   6   1
 -0.2056955728518836E-07   7   5   6   2
  0.1612029225397979E-05   7   5   6   3
 -0.8672087176554355E-06   7   5   6   4
 -0.3867262840771933E-06   7   5   6   5
  0.2570212461199592E-04   7   5   6   6
  0.2367991574457573E-04   7   5   7   1
 -0.1097505793783248E-03   7   5   7   2
  0.1112873628398307E-05   7   5   7   3
  0.5262063679805844E-08   7   5   7   4
  0.3486412054580612E-04   7   5   7   5
  0.1288168252734713E-05   7   6   1   1
 -0.3326732559617487E-08   7   6   2   1
 -0.9400280794155968E-06   7   6   2   2
 -0.9797781392014716E-10   7   6   3   1
 -0.3664487470514205E-08   7   6   3   2
 -0.2142576729969018E-05   7   6   3   3
 -0.1676960642205891E-12   7   6   4   1
 -0.3805732443187709E-10   7   6   4   2
 -0.1261458000222845E-08   7   6   4   3
  0.1288141890684588E-05   7   6   4   4
  0.1261890774366882E-08   7   6   5   1
 -0.9392366835254419E-07   7   6   5   2
  0.9253841140623701E-07   7   6   5   3
  0.9802621103796644E-10   7   6   5   4
 -0.2142575556047717E-05   7   6   5   5
 -0.8539643151799061E-11   7   6   6   1
  0.1000555920131281E-08   7   6   6   2
  0.3888491827225702E-07   7   6   6   3
 -0.1850912348823886E-07   7   6   6   4
 -0.1474390129563824E-08   7   6   6   5
  0.3561876642954595E-05   7   6   6   6
 -0.1850975911944874E-07   7   6   7   1
  0.4215220935130562E-06   7   6   7   2
  0.1474529706542825E-08   7   6   7   3
 -0.8539266957094460E-11   7   6   7   4
 -0.3888495622133484E-07   7   6   7   5
  0.2214861391925317E-09   7   6   7   6
  0.3421602841531683E+00   7   7   1   1
  0.9282743240072106E-03   7   7   2   1
  0.3407948150066909E+00   7   7   2   2
  0.1058973638645338E-04   7   7   3   1
  0.2049984952296659E-03   7   7   3   2
  0.1419002548865740E+00   7   7   3   3
 -0.3093452509957614E-08   7   7   4   1
 -0.1288324503943748E-05   7   7   4   2
  0.1514620409748116E-04   7   7   4   3
  0.7334303514013223E-01   7   7   4   4
  0.5628153268039403E-04   7   7   5   1
 -0.2195138519294086E-02   7   7   5   2
  0.1384866228998891E-02   7   7   5   3
  0.7123652460384595E-05   7   7   5   4
  0.2115649755463680E+00   7   7   5   5
  0.6285145388810710E-07   7   7   6   1
  0.1519545547503390E-04   7   7   6   2
 -0.2570205594193734E-04   7   7   6   3
 -0.1205171497338786E-03   7   7   6   4
 -0.3355617811545408E-04   7   7   6   5
  0.8723183581693045E-01   7   7   6   6
 -0.4513943678599683E-02   7   7   7   1
  0.4469617435728546E-02   7   7   7   2
  0.1856456629240033E-03   7   7   7   3
  0.2374376750231820E-07   7   7   7   4
 -0.9632112985289744E-04   7   7   7   5
  0.3561925724754486E-05   7   7   7   6
  0.6955877316504702E+00   7   7   7   7
  0.3438963032826356E-05   8   1   1   1
 -0.3909239361797270E-07   8   1   2   1
 -0.2134305085505221E-05   8   1   2   2
 -0.9796125876406818E-09   8   1   3   1
 -0.3520964179033718E-08   8   1   3   2
 -0.9272389171443548E-06   8   1   3   3
 -0.5667596045897414E-12   8   1   4   1
 -0.9471672200547241E-11   8   1   4   2
 -0.8643618609365750E-09   8   1   4   3
  0.7222841349030914E-06   8   1   4   4
 -0.1310190595864405E-08   8   1   5   1
 -0.9595877644330917E-07   8   1   5   2
  0.9198624705516983E-07   8   1   5   3
 -0.1144017425267637E-09   8   1   5   4
 -0.2154991162417071E-05   8   1   5   5
 -0.8640593486663873E-11   8   1   6   1
  0.1040062556878779E-09   8   1   6   2
  0.3797727712844827E-08   8   1   6   3
 -0.8028758950765837E-09   8   1   6   4
  0.1279981169935856E-08   8   1   6   5
  0.1288342519068028E-05   8   1   6   6
 -0.4291757271722572E-06   8   1   7   1
  0.9456116527293962E-07   8   1   7   2
  0.2382469442578071E-08   8   1   7   3
 -0.8046273926986693E-12   8   1   7   4
 -0.4058453222878867E-08   8   1   7   5
  0.3805512438745609E-10   8   1   7   6
 -0.9255913470558215E-06   8   1   7   7
  0.2242234371153037E-09   8   1   8   1
 -0.3434568269549812E-04   8   2   1   1
 -0.3709520562920236E-06   8   2   2   1
 -0.1946743677149883E-03   8   2   2   2
 -0.1211036866281711E-08   8   2   3   1
 -0.1218722335133528E-05   8   2   3   2
  0.5960113860440461E-04   8   2   3   3
 -0.1154536536253828E-10   8   2   4   1
  0.1614196346508026E-08   8   2   4   2
  0.1109809210272236E-06   8   2   4   3
 -0.3434550208588956E-04   8   2   4   4
 -0.1109946106333162E-06   8   2   5   1
  0.3035742630360604E-05   8   2   5   2
 -0.5800183401477393E-05   8   2   5   3
  0.1209172563208305E-08   8   2   5   4
  0.5960184772035986E-04   8   2   5   5
  0.6780418170546416E-11   8   2   6   1
 -0.4910304329766130E-07   8   2   6   2
 -0.9798028731146155E-07   8   2   6   3
  0.1513783816106980E-05   8   2   6   4
  0.1107864908992843E-06   8   2   6   5
 -0.9049267700920582E-04   8   2   6   6
  0.1513811387869193E-05   8   2   7   1
  0.1844969221770338E-05   8   2   7   2
 -0.1107924827159482E-06   8   2   7   3
  0.6773241044270160E-11   8   2   7   4
  0.9800793967525472E-07   8   2   7   5
 -0.2408309365420397E-08   8   2   7   6
 -0.9049351697396538E-04   8   2   7   7
 -0.1614123881311312E-08   8   2   8   1
  0.5825659219843269E-06   8   2   8   2
 -0.2565434304407611E-03   8   3   1   1
  0.2790829338524077E-05   8   3   2   1
 -0.1408936061450693E-02   8   3   2   2
 -0.2115347495529768E-07   8   3   3   1
  0.2462938510600989E-04   8   3   3   2
 -0.4406478670944959E-02   8   3   3   3
  0.3713125263166000E-09   8   3   4   1
  0.9596268034818866E-07   8   3   4   2
 -0.2440026214467501E-05   8   3   4   3
 -0.1399762174827660E-02   8   3   4   4
  0.1446465843368876E-05   8   3   5   1
 -0.3490606774355181E-04   8   3   5   2
  0.1342266733356743E-03   8   3   5   3
 -0.7704784246466406E-06   8   3   5   4
 -0.2151059068168685E-02   8   3   5   5
  0.7060319015477481E-08   8   3   6   1
 -0.7783167286168467E-06   8   3   6   2
 -0.1128639103154130E-03   8   3   6   3
 -0.3277576805980431E-04   8   3   6   4
  0.5238386426819367E-05   8   3   6   5
 -0.2195172512881264E-02   8   3   6   6
  0.1898210487927890E-05   8   3   7   1
 -0.3906656674679782E-04   8   3   7   2
  0.1936612574158435E-05   8   3   7   3
  0.4973049416423200E-08   8   3   7   4
 -0.1198336392989071E-04   8   3   7   5
 -0.9392682361527994E-07   8   3   7   6
 -0.4054714848565419E-03   8   3   7   7
 -0.4307237745231839E-06   8   3   8   1
  0.3035826482190492E-05   8   3   8   2
  0.3388711870240577E-02   8   3   8   3
 -0.4335975518752607E-05   8   4   1   1
  0.2508133085190571E-06   8   4   2   1
 -0.1698210313459465E-04   8   4   2   2
  0.2105995735175129E-07   8   4   3   1
  0.1673119097490535E-05   8   4   3   2
 -0.1679455882921013E-03   8   4   3   3
  0.3416788287910983E-09   8   4   4   1
 -0.3909319134353428E-07   8   4   4   2
 -0.1246547024139144E-05   8   4   4   3
  0.2465274467227195E-04   8   4   4   4
  0.5218916178822773E-08   8   4   5   1
 -0.2790829497291598E-05   8   4   5   2
 -0.1164935501721761E-04   8   4   5   3
  0.1143496057499065E-06   8   4   5   4
  0.4222128978421460E-04   8   4   5   5
 -0.3579223096420114E-09   8   4   6   1
  0.1766664067694794E-07   8   4   6   2
 -0.2697171129940267E-05   8   4   6   3
 -0.1110252827448127E-03   8   4   6   4
 -0.1009723212680939E-06   8   4   6   5
 -0.9282748389926593E-03   8   4   6   6
 -0.3635105161077058E-06   8   4   7   1
 -0.8073282856791791E-06   8   4   7   2
 -0.7682971261897191E-08   8   4   7   3
 -0.5376647451398215E-08   8   4   7   4
 -0.5634450032993460E-06   8   4   7   5
  0.3326559399808103E-08   8   4   7   6
  0.8257780972867416E-05   8   4   7   7
  0.6932883225202920E-08   8   4   8   1
  0.3709706558152126E-06   8   4   8   2
 -0.2391247290955105E-04   8   4   8   3
  0.3517132218964337E-04   8   4   8   4
  0.2026405230789519E-04   8   5   1   1
 -0.1673124831293699E-05   8   5   2   1
  0.1817291767373643E-03   8   5   2   2
  0.1730577460015670E-07   8   5   3   1
 -0.2875079719115832E-05   8   5   3   2
  0.9150486724599981E-03   8   5   3   3
  0.3025766062429386E-10   8   5   4   1
  0.3521984727889357E-08   8   5   4   2
 -0.1118482105800708E-06   8   5   4   3
 -0.2014709422666104E-04   8   5   4   4
 -0.3764680779399043E-06   8   5   5   1
  0.2462972370675829E-04   8   5   5   2
 -0.1061504625838130E-03   8   5   5   3
 -0.1118554159647748E-06   8   5   5   4
 -0.8685131027615667E-04   8   5   5   5
  0.1015882575869471E-08   8   5   6   1
  0.5337470356389504E-07   8   5   6   2
  0.2380205378791483E-05   8   5   6   3
 -0.1209073155683023E-04   8   5   6   4
 -0.1187797396881073E-05   8   5   6   5
  0.2049991444183382E-03   8   5   6   6
  0.2667165090018730E-05   8   5   7   1
  0.1172022131519939E-04   8   5   7   2
 -0.1147360975219904E-06   8   5   7   3
  0.5689564639997720E-09   8   5   7   4
  0.6196446374409133E-05   8   5   7   5
 -0.3665747292295856E-08   8   5   7   6
 -0.3384279066054784E-04   8   5   7   7
 -0.3765887292621040E-07   8   5   8   1
 -0.1218676285354468E-05   8   5   8   2
  0.1100379320606567E-03   8   5   8   3
 -0.6205003189743953E-05   8   5   8   4
  0.3463266944780249E-04   8   5   8   5
 -0.1194948984542478E-03   8   6   1   1
 -0.8073211047949525E-06   8   6   2   1
 -0.4121947251061375E-03   8   6   2   2
  0.1320516014855383E-06   8   6   3   1
 -0.1172020354806966E-04   8   6   3   2
 -0.2221498688206489E-02   8   6   3   3
  0.3230135085698477E-09   8   6   4   1
  0.9456309621817122E-07   8   6   4   2
 -0.5498715315171837E-05   8   6   4   3
 -0.2208455072854479E-02   8   6   4   4
  0.4418039645206594E-06   8   6   5   1
  0.3906636627338160E-04   8   6   5   2
  0.3139286974435294E-04   8   6   5   3
 -0.7842484309467594E-06   8   6   5   4
 -0.1405111078356252E-02   8   6   5   5
  0.3434739083160301E-07   8   6   6   1
 -0.2605813068796045E-05   8   6   6   2
 -0.1097527246343631E-03   8   6   6   3
 -0.1402450103948489E-03   8   6   6   4
  0.3239564250935810E-05   8   6   6   5
 -0.4469627655956934E-02   8   6   6   6
  0.3473516633783011E-05   8   6   7   1
 -0.2080951850147069E-05   8   6   7   2
 -0.1467319667027070E-05   8   6   7   3
  0.6624673238253048E-08   8   6   7   4
  0.2519554084659262E-05   8   6   7   5
 -0.4215233567041104E-06   8   6   7   6
 -0.2569715162365547E-03   8   6   7   7
 -0.1779125428756521E-07   8   6   8   1
 -0.1844929036928427E-05   8   6   8   2
 -0.1411902831661706E-03   8   6   8   3
 -0.1104345727588003E-03   8   6   8   4
  0.2282618415088904E-04   8   6   8   5
  0.3267529443006452E-02   8   6   8   6
 -0.1535857294080034E-04   8   7   1   1
  0.1766679535265380E-07   8   7   2   1
  0.1074322593058775E-04   8   7   2   2
  0.3403042417391995E-08   8   7   3   1
 -0.5338267911426651E-07   8   7   3   2
  0.1075047170276679E-04   8   7   3   3
  0.2272553707068878E-11   8   7   4   1
  0.1040386382973010E-09   8   7   4   2
  0.1449758494432352E-07   8   7   4   3
 -0.7174239148900610E-05   8   7   4   4
 -0.1455571117897702E-08   8   7   5   1
  0.7783262872036343E-06   8   7   5   2
 -0.7975107271591851E-06   8   7   5   3
  0.1447280275868771E-08   8   7   5   4
  0.2307628475637535E-04   8   7   5   5
  0.1162571584683183E-10   8   7   6   1
 -0.3411362867965268E-08   8   7   6   2
 -0.2055802721222655E-07   8   7   6   3
  0.1316101671067394E-06   8   7   6   4
 -0.1579316976440117E-08   8   7   6   5
 -0.1519541099916401E-04   8   7   6   6
 -0.9998651771946640E-08   8   7   7   1
 -0.2605828356269728E-05   8   7   7   2
 -0.4712148865619129E-07   8   7   7   3
  0.2289156816218962E-10   8   7   7   4
  0.1260445701617911E-06   8   7   7   5
 -0.1000568657884818E-08   8   7   7   6
 -0.3823328115232081E-04   8   7   7   7
 -0.1005959336912607E-08   8   7   8   1
  0.4910356633369907E-07   8   7   8   2
  0.2611027740905900E-05   8   7   8   3
 -0.1179945255580752E-07   8   7   8   4
  0.1112810726538549E-06   8   7   8   5
 -0.1283653974172197E-07   8   7   8   6
  0.1538179042184549E-07   8   7   8   7
  0.8737830919398026E-01   8   8   1   1
  0.1698159454639313E-04   8   8   2   1
  0.1425913262082451E+00   8   8   2   2
 -0.1521058012928503E-04   8   8   3   1
  0.1817350473658609E-03   8   8   3   2
  0.3433054674760257E+00   8   8   3   3
  0.2379324237770905E-07   8   8   4   1
  0.2134264163427850E-05   8   8   4   2
 -0.5774141680492948E-04   8   8   4   3
  0.2110133783554948E+00   8   8   4   4
 -0.3256285455852787E-04   8   8   5   1
 -0.1408920941833643E-02   8   8   5   2
  0.2178535707975632E-02   8   8   5   3
 -0.2295167760653321E-04   8   8   5   4
  0.2116982815425350E+00   8   8   5   5
  0.6125603332410087E-07   8   8   6   1
 -0.1074318821062584E-04   8   8   6   2
 -0.9371426694742080E-03   8   8   6   3
 -0.2227164079718666E-02   8   8   6   4
  0.5613055148148393E-04   8   8   6   5
  0.3407949114831615E+00   8   8   6   6
 -0.2610205337303939E-03   8   8   7   1
  0.4121963466887542E-03   8   8   7   2
  0.8899986394820988E-04   8   8   7   3
  0.2020156491430493E-07   8   8   7   4
 -0.2460586036251043E-04   8   8   7   5
 -0.9400546082443531E-06   8   8   7   6
  0.1094104454143105E+00   8   8   7   7
  0.3571885050020382E-05   8   8   8   1
 -0.1946733886700740E-03   8   8   8   2
 -0.4405425300156689E-02   8   8   8   3
  0.1094501742552505E-03   8   8   8   4
 -0.9911666914980306E-05   8   8   8   5
 -0.4462727290197428E-02   8   8   8   6
 -0.3795882772033089E-04   8   8   8   7
  0.6954490276534729E+00   8   8   8   8
 -0.1374353153199737E+01   1   1   0   0
 -0.1013376550364451E-01   2   1   0   0
 -0.1776243081987289E+01   2   2   0   0
 -0.2864204942213001E-03   3   1   0   0
 -0.9942655477758477E-02   3   2   0   0
 -0.1828699787571519E+01   3   3   0   0
 -0.2917659171208647E-06   4   1   0   0
 -0.5004391052721097E-04   4   2   0   0
  0.3712854545737034E-03   4   3   0   0
 -0.1374356345998407E+01   4   4   0   0
 -0.3712694947445421E-03   5   1   0   0
 -0.1432161726949070E+00   5   2   0   0
  0.1376131821658373E+00   5   3   0   0
  0.2864243283554065E-03   5   4   0   0
 -0.1828698337635130E+01   5   5   0   0
 -0.3828848134218755E-05   6   1   0   0
  0.2829689171020510E-03   6   2   0   0
  0.1026090815192097E-01   6   3   0   0
 -0.1464119308216032E+00   6   4   0   0
 -0.3595343143730819E-03   6   5   0   0
 -0.1638530388382061E+01   6   6   0   0
 -0.1464102810523860E+00   7   1   0   0
  0.1399113652345668E+00   7   2   0   0
  0.3595622225230510E-03   7   3   0   0
 -0.3828733194432479E-05   7   4   0   0
 -0.1026065621327523E-01   7   5   0   0
  0.4862331101312053E-04   7   6   0   0
 -0.1638528176830228E+01   7   7   0   0
  0.5004439499292264E-04   8   1   0   0
 -0.3539716309254050E-03   8   2   0   0
 -0.1432183634715620E+00   8   3   0   0
  0.1013367869617252E-01   8   4   0   0
 -0.9942915131974695E-02   8   5   0   0
 -0.1399113655062019E+00   8   6   0   0
 -0.2829725785744386E-03   8   7   0   0
 -0.1776244528460463E+01   8   8   0   0
 -0.2961413804735176E+03   0   0   0   0
