  &FCI NORB= 28,NELEC= 10,MS2= 0,
  ORBSYM=1,5,1,1,2,3,5,5,6,7,1,1,1,1,2,2,3,3,4,5,5,5,5,6,6,7,7,8,
  ISYM=1
  &END
  5.2463050219e-01  3  3  3  3
  2.1630465753e-02  4  3  3  3
  7.6383532794e-02  4  3  4  3
  5.8178915450e-01  4  4  3  3
  1.3289489230e-01  4  4  4  3
  8.6076685592e-01  4  4  4  4
  8.1416532497e-02  5  3  5  3
  3.8791687751e-02  5  4  5  3
  4.8515897251e-02  5  4  5  4
  5.2358011847e-01  5  5  3  3
  7.4891567423e-02  5  5  4  3
  6.3961408273e-01  5  5  4  4
  5.9309275127e-01  5  5  5  5
  8.1416532497e-02  6  3  6  3
  3.8791687751e-02  6  4  6  3
  4.8515897251e-02  6  4  6  4
  2.4031831158e-02  6  5  6  5
  5.2358011847e-01  6  6  3  3
  7.4891567423e-02  6  6  4  3
  6.3961408273e-01  6  6  4  4
  5.4502908894e-01  6  6  5  5
  5.9309275127e-01  6  6  6  6
  2.0904145814e-01  7  3  7  3
 -8.7750236660e-02  7  4  7  3
  5.0000986862e-02  7  4  7  4
  4.2435872235e-02  7  5  7  5
  4.2435872235e-02  7  6  7  6
  5.2418004050e-01  7  7  3  3
 -8.9069678142e-03  7  7  4  3
  5.4133782332e-01  7  7  4  4
  4.9997837075e-01  7  7  5  5
  4.9997837075e-01  7  7  6  6
  5.3689453911e-01  7  7  7  7
 -1.2608007769e-02  8  3  7  3
  2.7178919921e-02  8  3  7  4
  3.8780931262e-02  8  3  8  3
  1.3996174870e-01  8  4  7  3
 -4.0527660967e-02  8  4  7  4
  2.8079729745e-02  8  4  8  3
  1.8527127398e-01  8  4  8  4
  2.3185461511e-02  8  5  7  5
  3.6102842236e-02  8  5  8  5
  2.3185461511e-02  8  6  7  6
  3.6102842236e-02  8  6  8  6
 -2.8467465689e-03  8  7  3  3
  4.5361335504e-02  8  7  4  3
  4.0615579886e-02  8  7  4  4
  3.5809047881e-02  8  7  5  5
  3.5809047881e-02  8  7  6  6
 -2.2059840477e-02  8  7  7  7
  3.8291965601e-02  8  7  8  7
  6.0009790527e-01  8  8  3  3
  1.0983774342e-01  8  8  4  3
  8.3123621397e-01  8  8  4  4
  6.5200020941e-01  8  8  5  5
  6.5200020941e-01  8  8  6  6
  5.7036801275e-01  8  8  7  7
  3.5125930788e-02  8  8  8  7
  8.5819590709e-01  8  8  8  8
  5.1981346994e-02  9  3  7  5
  3.0149090057e-02  9  3  8  5
  6.4301624710e-02  9  3  9  3
  5.3226090012e-04  9  4  7  5
  2.0711520615e-02  9  4  8  5
  2.2741640198e-03  9  4  9  3
  1.7858180703e-02  9  4  9  4
  1.6478809261e-01  9  5  7  3
 -4.9570156519e-02  9  5  7  4
  2.3073703624e-02  9  5  8  3
  1.4461027530e-01  9  5  8  4
  1.8213652632e-01  9  5  9  5
  1.7825571677e-02  9  6  9  6
  7.4771255581e-02  9  7  5  3
  2.1106428757e-02  9  7  5  4
  7.8374150884e-02  9  7  9  7
  4.8306763551e-02  9  8  5  3
  4.3060158934e-02  9  8  5  4
  3.6481904034e-02  9  8  9  7
  5.1847770690e-02  9  8  9  8
  5.6194877527e-01  9  9  3  3
  5.2144521286e-02  9  9  4  3
  6.5465624027e-01  9  9  4  4
  6.1102770687e-01  9  9  5  5
  5.6640824057e-01  9  9  6  6
  5.5162434523e-01  9  9  7  7
  2.2011692979e-02  9  9  8  7
  6.9240158168e-01  9  9  8  8
  6.6687692240e-01  9  9  9  9
  5.1981346994e-02  10  3  7  6
  3.0149090057e-02  10  3  8  6
  6.4301624710e-02  10  3  10  3
  5.3226090012e-04  10  4  7  6
  2.0711520615e-02  10  4  8  6
  2.2741640198e-03  10  4  10  3
  1.7858180703e-02  10  4  10  4
  1.7825571666e-02  10  5  9  6
  1.7825571677e-02  10  5  10  5
  1.6478809261e-01  10  6  7  3
 -4.9570156519e-02  10  6  7  4
  2.3073703624e-02  10  6  8  3
  1.4461027530e-01  10  6  8  4
  1.4648538300e-01  10  6  9  5
  1.8213652632e-01  10  6  10  6
  7.4771255581e-02  10  7  6  3
  2.1106428757e-02  10  7  6  4
  7.8374150884e-02  10  7  10  7
  4.8306763551e-02  10  8  6  3
  4.3060158934e-02  10  8  6  4
  3.6481904034e-02  10  8  10  7
  5.1847770690e-02  10  8  10  8
  2.2309733123e-02  10  9  6  5
  2.6793927774e-02  10  9  10  9
  5.6194877527e-01  10  10  3  3
  5.2144521286e-02  10  10  4  3
  6.5465624027e-01  10  10  4  4
  5.6640824057e-01  10  10  5  5
  6.1102770687e-01  10  10  6  6
  5.5162434523e-01  10  10  7  7
  2.2011692979e-02  10  10  8  7
  6.9240158168e-01  10  10  8  8
  6.1328906668e-01  10  10  9  9
  6.6687692240e-01  10  10  10  10
 -1.5595981861e+01 1  1  0  0
 -1.5620316095e+01 2  2  0  0
 -5.5120975625e+00 3  3  0  0
 -8.7157235860e-01 4  3  0  0
 -6.4567516483e+00 4  4  0  0
 -5.4311049118e+00 5  5  0  0
 -5.4311049118e+00 6  6  0  0
 -5.0849554742e+00 7  7  0  0
 -1.9365536712e-01 8  7  0  0
 -4.9183022146e+00 8  8  0  0
 -5.1919082654e+00 9  9  0  0
 -5.1919082654e+00 10  10  0  0
  8.1301070384e-01 11  11  0  0
  1.0095862619e+00 12  12  0  0
  1.7564323748e+00 13  13  0  0
  2.9258527815e+00 14  14  0  0
  8.6705082319e-01 15  15  0  0
  1.9366786441e+00 16  16  0  0
  8.6705082333e-01 17  17  0  0
  1.9366786433e+00 18  18  0  0
  1.7564323748e+00 19  19  0  0
  7.0930582789e-01 20  20  0  0
  1.5815399530e+00 21  21  0  0
  2.3368273141e+00 22  22  0  0
  3.2794312853e+00 23  23  0  0
  9.3847281431e-01 24  24  0  0
  3.0476798888e+00 25  25  0  0
  9.3847281369e-01 26  26  0  0
  3.0476798877e+00 27  27  0  0
  2.3368273141e+00 28  28  0  0



