  &FCI NORB= 28,NELEC= 10,MS2= 0,
  ORBSYM=1,5,1,1,2,3,5,5,6,7,1,1,1,1,2,2,3,3,4,5,5,5,5,6,6,7,7,8,
  ISYM=1
  &END
  2.3374099116e+00  1  1  1  1
  1.8322169748e+00  2  1  2  1
  2.3334434364e+00  2  2  1  1
  2.3295034017e+00  2  2  2  2
 -1.1568667767e-01  3  1  1  1
 -1.1511855016e-01  3  1  2  2
  1.5136694248e-02  3  1  3  1
 -1.1148808915e-01  3  2  2  1
  1.5320962705e-02  3  2  3  2
  6.6638578623e-01  3  3  1  1
  6.6653844667e-01  3  3  2  2
  2.4224422436e-03  3  3  3  1
 -1.0373363989e-01  4  1  1  1
 -1.0377709795e-01  4  1  2  2
  7.6052998921e-03  4  1  3  1
 -6.9068695609e-03  4  1  3  3
  2.5846997316e-02  4  1  4  1
 -1.2289219390e-01  4  2  2  1
  6.9198040931e-03  4  2  3  2
  2.5140035722e-02  4  2  4  2
  8.7506095713e-02  4  3  1  1
  8.7084445638e-02  4  3  2  2
 -1.7623663523e-03  4  3  3  1
  1.7241874657e-02  4  3  4  1
  8.7842193592e-01  4  4  1  1
  8.7792304225e-01  4  4  2  2
  1.1531460757e-03  4  4  3  1
  2.0792316890e-02  4  4  4  1
  1.2040658430e-02  5  1  5  1
  1.2088861332e-02  5  2  5  2
  1.3422602710e-02  5  3  5  1
  7.6053203429e-03  5  4  5  1
  7.0507614812e-01  5  5  1  1
  7.0501996364e-01  5  5  2  2
  2.4612457662e-03  5  5  3  1
  3.9459414199e-03  5  5  4  1
  1.2040658430e-02  6  1  6  1
  1.2088861332e-02  6  2  6  2
  1.3422602710e-02  6  3  6  1
  7.6053203429e-03  6  4  6  1
  7.0507614812e-01  6  6  1  1
  7.0501996364e-01  6  6  2  2
  2.4612457662e-03  6  6  3  1
  3.9459414199e-03  6  6  4  1
 -1.4497270711e-01  7  1  2  1
  1.7109056863e-02  7  1  3  2
  6.2955841542e-03  7  1  4  2
  2.0084117550e-02  7  1  7  1
 -1.4333331107e-01  7  2  1  1
 -1.4263487206e-01  7  2  2  2
  1.7139555731e-02  7  2  3  1
 -2.6907070622e-04  7  2  3  3
  5.4282045810e-03  7  2  4  1
 -7.6045196153e-03  7  2  4  3
 -1.2146053442e-02  7  2  4  4
 -3.8152526697e-03  7  2  5  5
 -3.8152526697e-03  7  2  6  6
  2.0280025398e-02  7  2  7  2
  2.7464513345e-01  7  3  2  1
  5.9869212536e-03  7  3  3  2
 -2.1718027912e-02  7  3  4  2
 -2.1665677333e-03  7  3  7  1
 -7.6693285933e-02  7  4  2  1
 -4.6202993802e-03  7  4  3  2
  1.2218532873e-02  7  4  4  2
 -2.6852793336e-03  7  4  7  1
  1.0235662178e-02  7  5  5  2
  1.0235662178e-02  7  6  6  2
  6.5848452944e-01  7  7  1  1
  6.5877162552e-01  7  7  2  2
  2.3188737502e-03  7  7  3  1
 -1.4303343985e-02  7  7  4  1
  1.5422320020e-03  7  7  7  2
 -1.5361661446e-01  8  1  2  1
  9.7094782545e-03  8  1  3  2
  3.5332616053e-02  8  1  4  2
  8.1912628765e-03  8  1  7  1
 -2.3130346232e-02  8  1  7  3
  1.4502487934e-02  8  1  7  4
  5.0430043274e-02  8  1  8  1
 -1.3383424663e-01  8  2  1  1
 -1.3391143273e-01  8  2  2  2
  1.0395872896e-02  8  2  3  1
 -7.2060605740e-03  8  2  3  3
  3.6713084474e-02  8  2  4  1
  2.3996375368e-02  8  2  4  3
  2.9004022211e-02  8  2  4  4
  9.1604369269e-03  8  2  5  5
  9.1604369269e-03  8  2  6  6
  7.0543123081e-03  8  2  7  2
 -1.7407417828e-02  8  2  7  7
  5.2832378207e-02  8  2  8  2
  4.1759604556e-02  8  3  2  1
 -2.9042878286e-03  8  3  3  2
  9.9114295212e-03  8  3  4  2
 -5.3460823348e-03  8  3  7  1
  1.4078541321e-02  8  3  8  1
  3.4879532288e-01  8  4  2  1
  1.5156629327e-04  8  4  3  2
 -5.4558583055e-03  8  4  4  2
 -1.1153161427e-02  8  4  7  1
 -1.4844511760e-03  8  4  8  1
  9.3492267705e-03  8  5  5  2
  9.3492267705e-03  8  6  6  2
  2.0016896742e-02  8  7  1  1
  1.9727515760e-02  8  7  2  2
 -2.1140420152e-03  8  7  3  1
  1.0888756880e-02  8  7  4  1
 -5.2513791601e-03  8  7  7  2
  1.6078557835e-02  8  7  8  2
  1.0010422341e+00  8  8  1  1
  1.0005642559e+00  8  8  2  2
 -2.3804517682e-03  8  8  3  1
  9.8509037651e-03  8  8  4  1
 -1.6005551079e-02  8  8  7  2
  1.7210944304e-02  8  8  8  2
  1.6721178381e-02  9  1  5  2
  1.2994949315e-02  9  1  7  5
  1.1713734018e-02  9  1  8  5
  2.3206847674e-02  9  1  9  1
  1.7214333858e-02  9  2  5  1
  2.0365740483e-02  9  2  5  3
  1.0148787831e-02  9  2  5  4
  2.4713371217e-02  9  2  9  2
  1.3862799648e-02  9  3  5  2
  1.7694381342e-02  9  3  9  1
  3.4038808607e-03  9  4  5  2
  4.1691765628e-03  9  4  9  1
  2.9601672215e-01  9  5  2  1
  4.4344112037e-03  9  5  3  2
 -1.2895523452e-02  9  5  4  2
 -4.5835784301e-03  9  5  7  1
 -1.0648327439e-02  9  5  8  1
  1.3704256433e-02  9  7  5  1
  2.1069075253e-02  9  7  9  2
  1.1356522057e-02  9  8  5  1
  1.5768740526e-02  9  8  9  2
  8.1506227110e-01  9  9  1  1
  8.1513548955e-01  9  9  2  2
  2.3119963307e-03  9  9  3  1
 -5.0368284631e-03  9  9  4  1
 -3.8590683373e-03  9  9  7  2
 -1.4830755489e-03  9  9  8  2
  1.6721178381e-02  10  1  6  2
  1.2994949315e-02  10  1  7  6
  1.1713734018e-02  10  1  8  6
  2.3206847674e-02  10  1  10  1
  1.7214333858e-02  10  2  6  1
  2.0365740483e-02  10  2  6  3
  1.0148787831e-02  10  2  6  4
  2.4713371217e-02  10  2  10  2
  1.3862799648e-02  10  3  6  2
  1.7694381342e-02  10  3  10  1
  3.4038808607e-03  10  4  6  2
  4.1691765628e-03  10  4  10  1
  2.9601672215e-01  10  6  2  1
  4.4344112037e-03  10  6  3  2
 -1.2895523452e-02  10  6  4  2
 -4.5835784301e-03  10  6  7  1
 -1.0648327439e-02  10  6  8  1
  1.3704256433e-02  10  7  6  1
  2.1069075253e-02  10  7  10  2
  1.1356522057e-02  10  8  6  1
  1.5768740526e-02  10  8  10  2
  8.1506227110e-01  10  10  1  1
  8.1513548955e-01  10  10  2  2
  2.3119963307e-03  10  10  3  1
 -5.0368284631e-03  10  10  4  1
 -3.8590683373e-03  10  10  7  2
 -1.4830755489e-03  10  10  8  2
  9.0480808625e-03  11  1  1  1
  9.2646962501e-03  11  1  2  2
  4.3639744242e-04  11  1  3  1
  2.6264307931e-04  11  1  3  3
 -1.2926547982e-02  11  1  4  1
 -1.2765222537e-02  11  1  4  3
 -2.0158841511e-02  11  1  4  4
 -7.7423300899e-03  11  1  5  5
 -7.7423300899e-03  11  1  6  6
  2.6704109699e-03  11  1  7  2
  5.1952307031e-03  11  1  7  7
 -1.8733911146e-02  11  1  8  2
 -7.8661552575e-03  11  1  8  7
 -1.6161117025e-02  11  1  8  8
 -3.3775925837e-03  11  1  9  9
 -3.3775925837e-03  11  1  10  10
  8.1810954383e-03  11  1  11  1
  2.3839196283e-02  11  2  2  1
  8.1048496394e-04  11  2  3  2
 -1.2257190084e-02  11  2  4  2
  2.1051647017e-03  11  2  7  1
  1.0727440760e-02  11  2  7  3
 -7.3000019081e-03  11  2  7  4
 -1.7588942805e-02  11  2  8  1
 -7.0177164632e-03  11  2  8  3
 -1.6178864050e-03  11  2  8  4
  4.7588902882e-03  11  2  9  5
  4.7588902882e-03  11  2  10  6
  7.5355845400e-03  11  2  11  2
  2.9488733123e-02  11  3  1  1
  2.9605086242e-02  11  3  2  2
  9.7697577449e-04  11  3  3  1
  1.8197146477e-02  11  3  3  3
 -4.7595759943e-03  11  3  4  1
  5.4793341529e-03  11  3  4  3
  8.0280737884e-03  11  3  4  4
  3.0314102663e-02  11  3  5  5
  3.0314102663e-02  11  3  6  6
  1.5614348047e-03  11  3  7  2
  1.4600034777e-02  11  3  7  7
 -5.4727420289e-03  11  3  8  2
  7.0253601786e-03  11  3  8  7
  1.7286625009e-02  11  3  8  8
  2.7973531393e-02  11  3  9  9
  2.7973531393e-02  11  3  10  10
  1.7549987706e-03  11  3  11  1
  1.9549299254e-02  11  3  11  3
 -1.9138358953e-01  11  4  1  1
 -1.9114398019e-01  11  4  2  2
  4.5808762469e-04  11  4  3  1
 -6.3818471683e-02  11  4  3  3
 -8.0894087060e-03  11  4  4  1
 -4.6776269678e-02  11  4  4  3
 -1.6792200392e-01  11  4  4  4
 -8.5716472552e-02  11  4  5  5
 -8.5716472552e-02  11  4  6  6
  5.8834442718e-03  11  4  7  2
 -5.0046900603e-02  11  4  7  7
 -1.1058166032e-02  11  4  8  2
 -1.5441721389e-02  11  4  8  7
 -1.5913260479e-01  11  4  8  8
 -9.2443325772e-02  11  4  9  9
 -9.2443325772e-02  11  4  10  10
  8.0486290416e-03  11  4  11  1
 -7.6122106691e-04  11  4  11  3
  6.4553195700e-02  11  4  11  4
  1.1761638584e-03  11  5  5  1
  2.5039116577e-02  11  5  5  3
  8.2057653747e-03  11  5  5  4
  2.6404568286e-03  11  5  9  2
  2.0290571078e-02  11  5  9  7
  1.0114481571e-02  11  5  9  8
  1.9391800607e-02  11  5  11  5
  1.1761638584e-03  11  6  6  1
  2.5039116577e-02  11  6  6  3
  8.2057653747e-03  11  6  6  4
  2.6404568286e-03  11  6  10  2
  2.0290571078e-02  11  6  10  7
  1.0114481571e-02  11  6  10  8
  1.9391800607e-02  11  6  11  6
  2.7292659254e-02  11  7  2  1
  6.3388356828e-04  11  7  3  2
 -3.1491983149e-03  11  7  4  2
  7.2349142112e-04  11  7  7  1
 -5.4492766739e-03  11  7  7  3
  7.5314497302e-03  11  7  7  4
 -3.8747546021e-03  11  7  8  1
  6.8822309540e-03  11  7  8  3
  3.6660729192e-03  11  7  8  4
  6.9424855565e-03  11  7  9  5
  6.9424855565e-03  11  7  10  6
  1.0955926953e-03  11  7  11  2
  1.5886247112e-02  11  7  11  7
 -1.2893284113e-01  11  8  2  1
  1.7828875084e-03  11  8  3  2
  2.1177198081e-04  11  8  4  2
  5.4170556888e-03  11  8  7  1
 -1.5690340770e-02  11  8  7  3
  2.2284942745e-04  11  8  7  4
 -1.3612124525e-03  11  8  8  1
 -1.2623252182e-02  11  8  8  3
 -5.6351805653e-02  11  8  8  4
 -2.8344229220e-02  11  8  9  5
 -2.8344229220e-02  11  8  10  6
  2.4048468944e-03  11  8  11  2
 -7.3398323447e-03  11  8  11  7
  2.9548108833e-02  11  8  11  8
  7.3547238340e-04  11  9  5  2
  7.2083096997e-03  11  9  7  5
  1.0941209195e-03  11  9  8  5
  1.0334517464e-03  11  9  9  1
  8.1661649152e-03  11  9  9  3
 -2.5306648998e-03  11  9  9  4
  5.3376682867e-03  11  9  11  9
  7.3547238340e-04  11  10  6  2
  7.2083096997e-03  11  10  7  6
  1.0941209195e-03  11  10  8  6
  1.0334517464e-03  11  10  10  1
  8.1661649152e-03  11  10  10  3
 -2.5306648998e-03  11  10  10  4
  5.3376682867e-03  11  10  11  10
  4.8809683081e-01  11  11  1  1
  4.8797760709e-01  11  11  2  2
  6.0913656608e-05  11  11  3  1
  4.0455407700e-01  11  11  3  3
  4.1103462577e-03  11  11  4  1
  3.2123468055e-02  11  11  4  3
  4.7190750034e-01  11  11  4  4
  4.1753697066e-01  11  11  5  5
  4.1753697066e-01  11  11  6  6
 -3.2792104391e-03  11  11  7  2
  3.9465627839e-01  11  11  7  7
  6.0155087626e-03  11  11  8  2
  8.1155045920e-03  11  11  8  7
  4.6884803805e-01  11  11  8  8
  4.2314134486e-01  11  11  9  9
  4.2314134486e-01  11  11  10  10
 -4.7611982669e-03  11  11  11  1
  5.2749359212e-03  11  11  11  3
 -4.1244127249e-02  11  11  11  4
  3.6901509919e-01  11  11  11  11
  1.7666275570e-01  12  1  1  1
  1.7592330646e-01  12  1  2  2
 -1.8147881945e-02  12  1  3  1
  7.7389060363e-03  12  1  3  3
 -6.1097985766e-03  12  1  4  1
  9.1380469718e-03  12  1  4  3
  2.3574867603e-02  12  1  4  4
  1.2322952777e-02  12  1  5  5
  1.2322952777e-02  12  1  6  6
 -2.1856675159e-02  12  1  7  2
  5.8423873467e-03  12  1  7  7
 -7.5802458803e-03  12  1  8  2
  5.4990168793e-03  12  1  8  7
  3.0467974274e-02  12  1  8  8
  1.5137791802e-02  12  1  9  9
  1.5137791802e-02  12  1  10  10
 -2.9402605251e-03  12  1  11  1
 -8.3261672007e-04  12  1  11  3
 -9.8299026465e-03  12  1  11  4
  6.7483785115e-03  12  1  11  11
  2.4288436366e-02  12  1  12  1
  1.6325618345e-01  12  2  2  1
 -1.8297453103e-02  12  2  3  2
 -6.3078155132e-03  12  2  4  2
 -2.1674799733e-02  12  2  7  1
 -5.5048758314e-04  12  2  7  3
  4.8313084772e-03  12  2  7  4
 -7.9413865078e-03  12  2  8  1
  7.1933714771e-03  12  2  8  3
  1.3166653140e-02  12  2  8  4
  4.9945060941e-03  12  2  9  5
  4.9945060941e-03  12  2  10  6
 -2.6219238220e-03  12  2  11  2
  4.0482975619e-04  12  2  11  7
 -7.6608602462e-03  12  2  11  8
  2.3916418771e-02  12  2  12  2
 -2.0155499612e-01  12  3  1  1
 -2.0171504705e-01  12  3  2  2
 -9.0914160320e-04  12  3  3  1
 -9.3793513574e-02  12  3  3  3
  9.9828003083e-03  12  3  4  1
  4.5251714178e-03  12  3  4  3
 -1.1302226126e-01  12  3  4  4
 -8.0720460134e-02  12  3  5  5
 -8.0720460134e-02  12  3  6  6
  9.9023960826e-06  12  3  7  2
 -1.0131973718e-01  12  3  7  7
  1.2369700480e-02  12  3  8  2
  1.4832538581e-02  12  3  8  7
 -1.3054585711e-01  12  3  8  8
 -1.1160067504e-01  12  3  9  9
 -1.1160067504e-01  12  3  10  10
 -3.5846931823e-03  12  3  11  1
 -4.7555778876e-03  12  3  11  3
  3.3301574677e-02  12  3  11  4
 -3.4423447295e-02  12  3  11  11
 -4.5814708683e-03  12  3  12  1
  5.8756349605e-02  12  3  12  3
  2.8929892911e-02  12  4  1  1
  2.9213396117e-02  12  4  2  2
  2.3685118120e-03  12  4  3  1
  2.7670809660e-02  12  4  3  3
 -1.0356620541e-02  12  4  4  1
 -2.5159578802e-02  12  4  4  3
 -8.2286955981e-03  12  4  4  4
  1.1148301117e-02  12  4  5  5
  1.1148301117e-02  12  4  6  6
  4.6086751241e-03  12  4  7  2
  3.8016266399e-02  12  4  7  7
 -1.3642895568e-02  12  4  8  2
 -1.9287797934e-02  12  4  8  7
  7.0738421407e-03  12  4  8  8
  2.2550670613e-02  12  4  9  9
  2.2550670613e-02  12  4  10  10
  6.1843730115e-03  12  4  11  1
  9.4494374647e-03  12  4  11  3
  7.9665460141e-03  12  4  11  4
  3.3533036120e-03  12  4  11  11
 -3.6532711009e-03  12  4  12  1
 -1.9601560562e-02  12  4  12  3
  2.0917321628e-02  12  4  12  4
 -5.1135228029e-03  12  5  5  1
  2.0156869435e-03  12  5  5  3
  2.5826363137e-03  12  5  5  4
 -6.9002305538e-03  12  5  9  2
 -5.9207742462e-03  12  5  9  7
 -3.6513549734e-04  12  5  9  8
  1.0394278296e-02  12  5  11  5
  2.0497362758e-02  12  5  12  5
 -5.1135228029e-03  12  6  6  1
  2.0156869435e-03  12  6  6  3
  2.5826363137e-03  12  6  6  4
 -6.9002305538e-03  12  6  10  2
 -5.9207742462e-03  12  6  10  7
 -3.6513549734e-04  12  6  10  8
  1.0394278296e-02  12  6  11  6
  2.0497362758e-02  12  6  12  6
 -1.7917442571e-01  12  7  2  1
 -2.5940482984e-03  12  7  3  2
  1.6138989787e-02  12  7  4  2
  1.0940448392e-03  12  7  7  1
 -8.5427721846e-02  12  7  7  3
  3.7041788699e-02  12  7  7  4
  1.8119363955e-02  12  7  8  1
  9.6935527925e-03  12  7  8  3
 -7.1437969724e-02  12  7  8  4
 -7.1147657570e-02  12  7  9  5
 -7.1147657570e-02  12  7  10  6
 -7.1031438979e-03  12  7  11  2
 -1.1218236078e-02  12  7  11  7
  2.1365885088e-02  12  7  11  8
 -1.6935022624e-03  12  7  12  2
  6.4233674877e-02  12  7  12  7
  3.2639690027e-02  12  8  2  1
  3.3719891313e-03  12  8  3  2
 -9.5512459281e-03  12  8  4  2
  3.3344030807e-03  12  8  7  1
  3.7667684104e-02  12  8  7  3
 -2.5554659867e-02  12  8  7  4
 -1.2134919173e-02  12  8  8  1
 -2.0055343920e-02  12  8  8  3
  1.2783215594e-02  12  8  8  4
  1.6768408948e-02  12  8  9  5
  1.6768408948e-02  12  8  10  6
  5.6521888641e-03  12  8  11  2
  3.0728246180e-03  12  8  11  7
 -8.3751543223e-05  12  8  11  8
 -4.2283341867e-03  12  8  12  2
 -2.3440737767e-02  12  8  12  7
  2.0295994134e-02  12  8  12  8
 -8.2544250175e-03  12  9  5  2
 -1.8338027643e-02  12  9  7  5
 -9.1729121735e-03  12  9  8  5
 -1.0908527041e-02  12  9  9  1
 -2.4653182345e-02  12  9  9  3
 -2.2413563316e-05  12  9  9  4
 -3.0108403689e-03  12  9  11  9
  2.0001478190e-02  12  9  12  9
 -8.2544250175e-03  12  10  6  2
 -1.8338027643e-02  12  10  7  6
 -9.1729121735e-03  12  10  8  6
 -1.0908527041e-02  12  10  10  1
 -2.4653182345e-02  12  10  10  3
 -2.2413563316e-05  12  10  10  4
 -3.0108403689e-03  12  10  11  10
  2.0001478190e-02  12  10  12  10
  8.9353308863e-03  12  11  1  1
  8.8027859409e-03  12  11  2  2
 -3.8082324073e-05  12  11  3  1
  1.2233976241e-02  12  11  3  3
  7.1248984567e-03  12  11  4  1
  3.1976840200e-02  12  11  4  3
  4.4757359923e-02  12  11  4  4
  4.0357712829e-02  12  11  5  5
  4.0357712829e-02  12  11  6  6
 -1.6180233369e-03  12  11  7  2
 -2.7987733086e-03  12  11  7  7
  9.9490361312e-03  12  11  8  2
  2.1846936788e-02  12  11  8  7
  3.5634703477e-02  12  11  8  8
  2.2292197281e-02  12  11  9  9
  2.2292197281e-02  12  11  10  10
 -5.3732015132e-03  12  11  11  1
  1.6361706784e-02  12  11  11  3
 -1.3682028176e-02  12  11  11  4
  1.5589764775e-02  12  11  11  11
  1.5691043145e-03  12  11  12  1
  8.6176186371e-03  12  11  12  3
 -4.6103614378e-03  12  11  12  4
  3.3676804237e-02  12  11  12  11
  5.8136333361e-01  12  12  1  1
  5.8152403792e-01  12  12  2  2
  9.2779739310e-04  12  12  3  1
  4.5384827928e-01  12  12  3  3
 -1.0730737880e-02  12  12  4  1
  7.3480066844e-03  12  12  4  3
  4.8411679008e-01  12  12  4  4
  4.5023703502e-01  12  12  5  5
  4.5023703502e-01  12  12  6  6
 -4.9722724226e-04  12  12  7  2
  4.5625011184e-01  12  12  7  7
 -1.2867331634e-02  12  12  8  2
 -8.9326732740e-03  12  12  8  7
  5.0374021382e-01  12  12  8  8
  4.7898790755e-01  12  12  9  9
  4.7898790755e-01  12  12  10  10
  2.7527060707e-03  12  12  11  1
  1.8863981280e-02  12  12  11  3
 -4.3449187519e-02  12  12  11  4
  3.6994935716e-01  12  12  11  11
  6.2123820447e-03  12  12  12  1
 -6.8940927406e-02  12  12  12  3
  2.6870463849e-02  12  12  12  4
  1.0521237198e-02  12  12  12  11
  4.1323785943e-01  12  12  12  12
  1.0346779528e-03  13  1  5  5
 -1.0346779528e-03  13  1  6  6
  1.6996648591e-03  13  1  9  9
 -1.6996648591e-03  13  1  10  10
  3.0443141870e-04  13  1  13  1
  1.7319636123e-03  13  2  9  5
 -1.7319636123e-03  13  2  10  6
  3.3158488646e-04  13  2  13  2
  2.7521232317e-02  13  3  5  5
 -2.7521232317e-02  13  3  6  6
  2.6397274500e-02  13  3  9  9
 -2.6397274500e-02  13  3  10  10
  5.8462081068e-04  13  3  13  1
  3.4869070756e-02  13  3  13  3
  1.3961601809e-02  13  4  5  5
 -1.3961601809e-02  13  4  6  6
  7.8659179333e-03  13  4  9  9
 -7.8659179333e-03  13  4  10  10
  5.4552048449e-04  13  4  13  1
  1.2844540542e-02  13  4  13  3
  1.6644966472e-02  13  4  13  4
  9.1064897560e-03  13  5  5  1
  6.5680445732e-02  13  5  5  3
  3.5453110375e-02  13  5  5  4
  1.3970824589e-02  13  5  9  2
  5.6462596459e-02  13  5  9  7
  4.1668927078e-02  13  5  9  8
  2.3469087409e-02  13  5  11  5
  6.4193780043e-03  13  5  12  5
  6.9162426684e-02  13  5  13  5
 -9.1064897560e-03  13  6  6  1
 -6.5680445732e-02  13  6  6  3
 -3.5453110375e-02  13  6  6  4
 -1.3970824589e-02  13  6  10  2
 -5.6462596459e-02  13  6  10  7
 -4.1668927078e-02  13  6  10  8
 -2.3469087409e-02  13  6  11  6
 -6.4193780043e-03  13  6  12  6
  6.9162426684e-02  13  6  13  6
  1.8329390640e-02  13  7  9  5
 -1.8329390640e-02  13  7  10  6
  1.0511008740e-03  13  7  13  2
  2.3252740885e-02  13  7  13  7
  1.3349756946e-02  13  8  9  5
 -1.3349756946e-02  13  8  10  6
  1.0463428933e-03  13  8  13  2
  1.2762053405e-02  13  8  13  7
  1.5260733104e-02  13  8  13  8
  8.0784144866e-03  13  9  5  2
  3.4404780560e-02  13  9  7  5
  2.3630766728e-02  13  9  8  5
  1.0152139070e-02  13  9  9  1
  4.2081457143e-02  13  9  9  3
  4.4526199937e-03  13  9  9  4
  6.3978180112e-03  13  9  11  9
 -1.2964600900e-02  13  9  12  9
  3.9745330885e-02  13  9  13  9
 -8.0784144866e-03  13  10  6  2
 -3.4404780560e-02  13  10  7  6
 -2.3630766728e-02  13  10  8  6
 -1.0152139070e-02  13  10  10  1
 -4.2081457143e-02  13  10  10  3
 -4.4526199937e-03  13  10  10  4
 -6.3978180112e-03  13  10  11  10
  1.2964600900e-02  13  10  12  10
  3.9745330885e-02  13  10  13  10
  1.2534572373e-02  13  11  5  5
 -1.2534572373e-02  13  11  6  6
  8.7821863851e-03  13  11  9  9
 -8.7821863851e-03  13  11  10  10
 -1.3060973480e-04  13  11  13  1
  1.5242679796e-02  13  11  13  3
  7.1851523645e-03  13  11  13  4
  1.2027174414e-02  13  11  13  11
  4.0005998236e-03  13  12  5  5
 -4.0005998236e-03  13  12  6  6
 -1.4171351623e-03  13  12  9  9
  1.4171351623e-03  13  12  10  10
 -6.9086726155e-04  13  12  13  1
  4.9834785628e-03  13  12  13  3
  3.4794037280e-03  13  12  13  4
  7.0398441486e-03  13  12  13  11
  8.9542872488e-03  13  12  13  12
  6.0537498515e-01  13  13  1  1
  6.0538271825e-01  13  13  2  2
  3.2152339135e-03  13  13  3  1
  5.0917057988e-01  13  13  3  3
  4.3403517669e-03  13  13  4  1
  6.4215904944e-02  13  13  4  3
  5.9178052874e-01  13  13  4  4
  5.5041944305e-01  13  13  5  5
  5.5041944305e-01  13  13  6  6
 -8.1321961080e-04  13  13  7  2
  4.8734587443e-01  13  13  7  7
  8.6956985159e-03  13  13  8  2
  3.5529713637e-02  13  13  8  7
  5.9859447999e-01  13  13  8  8
  5.6024503535e-01  13  13  9  9
  5.6024503535e-01  13  13  10  10
 -6.4362574815e-03  13  13  11  1
  3.4277245985e-02  13  13  11  3
 -6.3633904617e-02  13  13  11  4
  4.0945879803e-01  13  13  11  11
  6.8760901688e-03  13  13  12  1
 -6.3186650650e-02  13  13  12  3
  1.2644513196e-02  13  13  12  4
  4.3053558421e-02  13  13  12  11
  4.3812605327e-01  13  13  12  12
  5.6123448620e-01  13  13  13  13
  1.7852701541e-02  14  1  1  1
  1.7912091585e-02  14  1  2  2
 -3.6321090396e-04  14  1  3  1
  1.8648303518e-03  14  1  3  3
 -5.6643774065e-03  14  1  4  1
 -2.2465579674e-03  14  1  4  3
  2.4684383408e-03  14  1  4  4
 -4.8370645198e-04  14  1  5  5
 -4.8370645198e-04  14  1  6  6
  2.2475985776e-04  14  1  7  2
  2.9138197719e-03  14  1  7  7
 -8.6788983171e-03  14  1  8  2
 -3.2673763005e-03  14  1  8  7
  2.7113864397e-03  14  1  8  8
  1.7383738874e-04  14  1  9  9
  1.7383738874e-04  14  1  10  10
  3.2461769244e-03  14  1  11  1
  7.0600787796e-04  14  1  11  3
 -1.5565720232e-03  14  1  11  4
  7.2016307725e-04  14  1  11  11
 -1.4393391333e-04  14  1  12  1
 -2.4101076421e-03  14  1  12  3
  2.1108345761e-03  14  1  12  4
 -1.2403827624e-03  14  1  12  11
  2.7648051973e-03  14  1  12  12
 -5.7187427885e-04  14  1  13  13
  2.3964951622e-03  14  1  14  1
  1.7439529280e-02  14  2  2  1
 -2.8846508903e-04  14  2  3  2
 -5.9998437231e-03  14  2  4  2
  2.1287172086e-04  14  2  7  1
  2.9985074164e-03  14  2  7  3
 -3.3698971590e-03  14  2  7  4
 -8.9357316798e-03  14  2  8  1
 -3.9412755065e-03  14  2  8  3
  1.8497844388e-03  14  2  8  4
 -4.7066144723e-04  14  2  9  5
 -4.7066144723e-04  14  2  10  6
  3.4422708772e-03  14  2  11  2
  7.7689605227e-04  14  2  11  7
 -1.1996465933e-03  14  2  11  8
 -3.1863912158e-04  14  2  12  2
 -3.0457293746e-03  14  2  12  7
  3.4393917294e-03  14  2  12  8
  2.5048325100e-03  14  2  14  2
 -1.1258242105e-02  14  3  1  1
 -1.1230565541e-02  14  3  2  2
  1.2435700629e-05  14  3  3  1
  1.7614738228e-03  14  3  3  3
 -1.8087706650e-03  14  3  4  1
 -1.5975115494e-02  14  3  4  3
  1.0329396431e-02  14  3  4  4
 -2.0645174727e-02  14  3  5  5
 -2.0645174727e-02  14  3  6  6
  7.9319149408e-04  14  3  7  2
  8.6134480393e-03  14  3  7  7
 -4.5256075752e-03  14  3  8  2
 -2.5859404142e-02  14  3  8  7
 -3.5404229553e-03  14  3  8  8
 -2.3428402731e-02  14  3  9  9
 -2.3428402731e-02  14  3  10  10
  1.8139637562e-03  14  3  11  1
 -1.1500969091e-02  14  3  11  3
 -3.6412892753e-04  14  3  11  4
  4.8387913121e-03  14  3  11  11
 -1.3063489734e-03  14  3  12  1
 -7.3040764858e-03  14  3  12  3
  6.9181167748e-03  14  3  12  4
 -7.9040957367e-03  14  3  12  11
  4.4422564184e-03  14  3  12  12
 -2.5241227343e-02  14  3  13  13
  2.0192660713e-03  14  3  14  1
  3.4771326719e-02  14  3  14  3
  1.4687695795e-02  14  4  1  1
  1.4383219153e-02  14  4  2  2
  4.6612103599e-05  14  4  3  1
 -1.6434578118e-03  14  4  3  3
  1.5719041099e-02  14  4  4  1
  5.6432859555e-02  14  4  4  3
  9.3412806189e-02  14  4  4  4
  3.2624267517e-02  14  4  5  5
  3.2624267517e-02  14  4  6  6
 -4.0189785518e-03  14  4  7  2
 -2.3858796779e-02  14  4  7  7
  2.0251722097e-02  14  4  8  2
  2.9893162688e-02  14  4  8  7
  5.4000350495e-02  14  4  8  8
  1.2162156330e-02  14  4  9  9
  1.2162156330e-02  14  4  10  10
 -1.0291991217e-02  14  4  11  1
 -1.7361305982e-03  14  4  11  3
 -3.9825752442e-02  14  4  11  4
  1.7612031256e-02  14  4  11  11
  3.9590910427e-03  14  4  12  1
  9.7471582962e-03  14  4  12  3
 -2.4092300345e-02  14  4  12  4
  2.1197994302e-02  14  4  12  11
 -7.3666509844e-03  14  4  12  12
  2.6056071820e-02  14  4  13  13
 -7.3338633418e-04  14  4  14  1
 -7.5117432234e-03  14  4  14  3
  5.9045193893e-02  14  4  14  4
 -5.4291970907e-03  14  5  5  1
 -2.4937334291e-02  14  5  5  3
 -5.0023087710e-03  14  5  5  4
 -8.2547635255e-03  14  5  9  2
 -2.8175947088e-02  14  5  9  7
 -1.8955992748e-02  14  5  9  8
 -7.0225320554e-03  14  5  11  5
  4.5659734668e-03  14  5  12  5
 -2.0283577249e-02  14  5  13  5
  2.0756231348e-02  14  5  14  5
 -5.4291970907e-03  14  6  6  1
 -2.4937334291e-02  14  6  6  3
 -5.0023087710e-03  14  6  6  4
 -8.2547635255e-03  14  6  10  2
 -2.8175947088e-02  14  6  10  7
 -1.8955992748e-02  14  6  10  8
 -7.0225320554e-03  14  6  11  6
  4.5659734668e-03  14  6  12  6
  2.0283577249e-02  14  6  13  6
  2.0756231348e-02  14  6  14  6
 -6.9379824607e-03  14  7  2  1
  4.6552821551e-04  14  7  3  2
 -5.0062957255e-03  14  7  4  2
  1.0158854238e-03  14  7  7  1
  1.4497721205e-02  14  7  7  3
 -2.4039201764e-02  14  7  7  4
 -7.1475425306e-03  14  7  8  1
 -3.0456471902e-02  14  7  8  3
  1.1866618692e-03  14  7  8  4
 -1.7146294916e-02  14  7  9  5
 -1.7146294916e-02  14  7  10  6
  3.1788455671e-03  14  7  11  2
 -1.0760250323e-02  14  7  11  7
  2.9033085343e-03  14  7  11  8
 -2.2978261886e-03  14  7  12  2
 -1.1286274609e-02  14  7  12  7
  1.6032636270e-02  14  7  12  8
  3.0707814196e-03  14  7  14  2
  3.9930954073e-02  14  7  14  7
 -1.5099662678e-01  14  8  2  1
 -3.5347907559e-03  14  8  3  2
  1.3851897169e-02  14  8  4  2
  3.4781122797e-04  14  8  7  1
 -1.0601639724e-01  14  8  7  3
  4.3784888048e-02  14  8  7  4
  1.5223162330e-02  14  8  8  1
  7.0484835173e-03  14  8  8  3
 -7.0139436779e-02  14  8  8  4
 -8.5715238267e-02  14  8  9  5
 -8.5715238267e-02  14  8  10  6
 -7.1237746178e-03  14  8  11  2
  4.9956731747e-04  14  8  11  7
  6.4856780886e-03  14  8  11  8
  5.5802276399e-04  14  8  12  2
  4.8257032629e-02  14  8  12  7
 -2.1219153161e-02  14  8  12  8
 -1.8311477436e-03  14  8  14  2
 -1.0034817144e-02  14  8  14  7
  6.2947971355e-02  14  8  14  8
 -7.8290909314e-03  14  9  5  2
 -2.8419757754e-02  14  9  7  5
 -2.3740761282e-02  14  9  8  5
 -9.9526451651e-03  14  9  9  1
 -3.5047862027e-02  14  9  9  3
 -7.2202309196e-03  14  9  9  4
 -6.1963035372e-03  14  9  11  9
  1.1937688594e-02  14  9  12  9
 -2.6313015180e-02  14  9  13  9
  2.8952524549e-02  14  9  14  9
 -7.8290909314e-03  14  10  6  2
 -2.8419757754e-02  14  10  7  6
 -2.3740761282e-02  14  10  8  6
 -9.9526451651e-03  14  10  10  1
 -3.5047862027e-02  14  10  10  3
 -7.2202309196e-03  14  10  10  4
 -6.1963035372e-03  14  10  11  10
  1.1937688594e-02  14  10  12  10
  2.6313015180e-02  14  10  13  10
  2.8952524549e-02  14  10  14  10
 -5.5595629110e-02  14  11  1  1
 -5.5521944340e-02  14  11  2  2
 -7.1751911577e-04  14  11  3  1
 -4.5636537044e-02  14  11  3  3
 -5.4160865725e-03  14  11  4  1
 -1.2931738886e-02  14  11  4  3
 -8.0162608738e-02  14  11  4  4
 -4.5473302431e-02  14  11  5  5
 -4.5473302431e-02  14  11  6  6
  7.4250508528e-04  14  11  7  2
 -4.2956338813e-02  14  11  7  7
 -6.9237126370e-03  14  11  8  2
 -2.6085779049e-03  14  11  8  7
 -6.9515554669e-02  14  11  8  8
 -5.0355756084e-02  14  11  9  9
 -5.0355756084e-02  14  11  10  10
  3.3025536856e-03  14  11  11  1
  6.1081435641e-03  14  11  11  3
  2.0665886492e-02  14  11  11  4
 -2.7659900608e-02  14  11  11  11
 -1.6695496582e-03  14  11  12  1
  1.5114826563e-02  14  11  12  3
  3.9665146328e-03  14  11  12  4
  2.3491269262e-05  14  11  12  11
 -2.6143957012e-02  14  11  12  12
 -4.2128854045e-02  14  11  13  13
  4.0453735779e-04  14  11  14  1
 -4.4239168302e-03  14  11  14  3
 -1.1843249152e-02  14  11  14  4
  1.9387941283e-02  14  11  14  11
 -1.6251692212e-02  14  12  1  1
 -1.6323004594e-02  14  12  2  2
 -4.6798327210e-04  14  12  3  1
 -1.5204869612e-02  14  12  3  3
  3.3435701355e-03  14  12  4  1
  1.4276186522e-02  14  12  4  3
 -1.6322679037e-02  14  12  4  4
  3.3449806939e-03  14  12  5  5
  3.3449806939e-03  14  12  6  6
 -1.1605487309e-03  14  12  7  2
 -2.2519526624e-02  14  12  7  7
  5.7682704100e-03  14  12  8  2
  1.8534443702e-02  14  12  8  7
 -1.3357569541e-02  14  12  8  8
 -2.6305985288e-03  14  12  9  9
 -2.6305985287e-03  14  12  10  10
 -2.3080381224e-03  14  12  11  1
  6.6956103985e-03  14  12  11  3
  3.9535605947e-03  14  12  11  4
 -4.0947933366e-03  14  12  11  11
  9.3297142296e-04  14  12  12  1
  1.3716541509e-02  14  12  12  3
 -7.6029673374e-03  14  12  12  4
  1.1929194818e-02  14  12  12  11
 -1.1696068471e-02  14  12  12  12
  4.7379807294e-03  14  12  13  13
 -2.1610378404e-03  14  12  14  1
 -1.7370196456e-02  14  12  14  3
  8.2168709926e-03  14  12  14  4
  5.7476823447e-03  14  12  14  11
  1.6873601865e-02  14  12  14  12
 -1.2860325432e-02  14  13  5  5
  1.2860325432e-02  14  13  6  6
 -1.6425420327e-02  14  13  9  9
  1.6425420327e-02  14  13  10  10
 -4.3140970046e-04  14  13  13  1
 -1.7816691025e-02  14  13  13  3
 -2.4701534769e-03  14  13  13  4
 -6.9871684321e-03  14  13  13  11
  5.1942622406e-05  14  13  13  12
  1.6867652678e-02  14  13  14  13
  6.2969269943e-01  14  14  1  1
  6.2978016299e-01  14  14  2  2
  3.5980961966e-03  14  14  3  1
  5.1708596794e-01  14  14  3  3
  3.4122664362e-06  14  14  4  1
  3.1948148279e-02  14  14  4  3
  5.9931096589e-01  14  14  4  4
  5.1845841428e-01  14  14  5  5
  5.1845841428e-01  14  14  6  6
  2.5206434521e-04  14  14  7  2
  5.1215606783e-01  14  14  7  7
  1.0736264465e-03  14  14  8  2
 -5.9301417378e-04  14  14  8  7
  6.0315168914e-01  14  14  8  8
  5.4821687660e-01  14  14  9  9
  5.4821687660e-01  14  14  10  10
 -2.9314112140e-03  14  14  11  1
  1.2084378843e-02  14  14  11  3
 -7.0424198170e-02  14  14  11  4
  4.0857057608e-01  14  14  11  11
  6.4953102361e-03  14  14  12  1
 -8.8336138605e-02  14  14  12  3
  2.0665754335e-02  14  14  12  4
  1.8045494355e-02  14  14  12  11
  4.4440739351e-01  14  14  12  12
  5.0385661787e-01  14  14  13  13
  1.3291876079e-03  14  14  14  1
  1.2321729304e-02  14  14  14  3
  7.6156243439e-03  14  14  14  4
 -5.3492274392e-02  14  14  14  11
 -1.8436118797e-02  14  14  14  12
  5.2957992617e-01  14  14  14  14
 -1.3855917371e-02  15  1  5  1
 -1.6726793255e-02  15  1  5  3
 -8.7189131390e-03  15  1  5  4
 -1.9886312904e-02  15  1  9  2
 -1.6814247144e-02  15  1  9  7
 -1.3148533445e-02  15  1  9  8
 -2.3010739719e-03  15  1  11  5
  4.5334568344e-03  15  1  12  5
 -1.1701808493e-02  15  1  13  5
  6.3790071009e-03  15  1  14  5
  1.6092727425e-02  15  1  15  1
 -1.3745522813e-02  15  2  5  2
 -1.1202871643e-02  15  2  7  5
 -1.0059449474e-02  15  2  8  5
 -1.9053492661e-02  15  2  9  1
 -1.5113740587e-02  15  2  9  3
 -3.5336489208e-03  15  2  9  4
 -7.7846953692e-04  15  2  11  9