 &FCI NORB= 11,NELEC=10,MS2= 0,
  ORBSYM=1,1,1,1,1,1,1,1,1,1,1,
  ISYM=1
 &END
   0.634984327801      1  1  1  1
   0.136141449676E-10  2  1  1  1
   0.137319160741      2  1  2  1
   0.587610991218      2  2  1  1
  -0.175637629440E-10  2  2  2  1
   0.592312135830      2  2  2  2
  -0.151023102005E-01  3  1  1  1
   0.442135954584E-11  3  1  2  1
  -0.486260855041E-02  3  1  2  2
   0.933500590249E-01  3  1  3  1
   0.130168263592E-10  3  2  1  1
  -0.907328101801E-03  3  2  2  1
  -0.522139026893E-12  3  2  2  2
   0.168938137541E-11  3  2  3  1
   0.260482339706E-01  3  2  3  2
   0.596604952186      3  3  1  1
   0.748777428949E-11  3  3  2  1
   0.540279161453      3  3  2  2
   0.392850041263E-01  3  3  3  1
   0.208473377450E-10  3  3  3  2
   0.659631000995      3  3  3  3
  -0.958775166999E-01  4  1  1  1
   0.695868753245E-11  4  1  2  1
  -0.731491734099E-01  4  1  2  2
   0.760593047779E-02  4  1  3  1
   0.150557496158E-11  4  1  3  2
  -0.953806297306E-01  4  1  3  3
   0.390484821061E-01  4  1  4  1
   0.396657640544E-10  4  2  1  1
   0.174315555173E-02  4  2  2  1
   0.404619469440E-11  4  2  2  2
  -0.112237681036E-10  4  2  3  1
  -0.162240958140E-02  4  2  3  2
   0.277460786627E-10  4  2  3  3
  -0.119831215670E-10  4  2  4  1
   0.196165247166E-01  4  2  4  2
   0.200817037325E-01  4  3  1  1
  -0.182852301009E-11  4  3  2  1
   0.116658152776E-01  4  3  2  2
  -0.256712431059E-01  4  3  3  1
   0.681962960495E-11  4  3  3  2
   0.833039557367E-02  4  3  3  3
  -0.105707962000E-01  4  3  4  1
   0.252658874725E-11  4  3  4  2
   0.158179721442E-01  4  3  4  3
   0.359079167899      4  4  1  1
  -0.237502691125E-10  4  4  2  1
   0.348012258941      4  4  2  2
  -0.137386216057E-01  4  4  3  1
   0.760101617064E-11  4  4  3  2
   0.341967913538      4  4  3  3
  -0.224815090657E-01  4  4  4  1
  -0.764893010041E-11  4  4  4  2
   0.606630320851E-02  4  4  4  3
   0.283743441697      4  4  4  4
   0.686253655898E-10  5  1  1  1
   0.158382947599E-10  5  1  2  1
  -0.263437991779E-01  5  1  2  2
  -0.261075108608E-10  5  1  3  1
   0.211264146503E-10  5  1  3  2
   0.476729933538E-10  5  1  3  3
  -0.209465008272E-10  5  1  4  1
  -0.301249699014E-11  5  1  4  2
   0.372791989606E-10  5  1  4  3
   0.436635469263E-10  5  1  4  4
   0.227498669778E-01  5  1  5  1
   0.557986521571E-10  5  2  1  1
  -0.597245804696E-01  5  2  2  1
  -0.904793922214E-02  5  2  2  2
   0.230383140069E-10  5  2  3  1
   0.207235127240E-02  5  2  3  2
   0.599830035495E-10  5  2  3  3
  -0.197877031601E-10  5  2  4  1
  -0.124277150809E-01  5  2  4  2
   0.355165100888E-10  5  2  4  3
   0.580562691021E-10  5  2  4  4
   0.973935832396E-02  5  2  5  1
   0.445906320263E-01  5  2  5  2
  -0.680904665740E-10  5  3  1  1
   0.344060313145E-10  5  3  2  1
   0.212726194043E-02  5  3  2  2
   0.100067679430E-10  5  3  3  1
  -0.553345216192E-11  5  3  3  2
  -0.707829934599E-10  5  3  3  3
   0.243762810637E-10  5  3  4  1
   0.149983523797E-10  5  3  4  2
  -0.480483519996E-11  5  3  4  3
  -0.214283121657E-10  5  3  4  4
  -0.252102167073E-02  5  3  5  1
  -0.133723686355E-02  5  3  5  2
   0.382368928955E-02  5  3  5  3
  -0.208669305793E-10  5  4  1  1
   0.156228648724E-10  5  4  2  1
  -0.151296823312E-01  5  4  2  2
   0.223740834413E-10  5  4  3  1
  -0.121760163529E-11  5  4  3  2
  -0.185186112186E-10  5  4  3  3
   0.240235051904E-10  5  4  4  1
  -0.837182474495E-11  5  4  4  2
  -0.300698399015E-10  5  4  4  3
   0.177418328781E-10  5  4  4  4
   0.174118731010E-01  5  4  5  1
   0.922294812554E-02  5  4  5  2
  -0.269239619452E-02  5  4  5  3
   0.311429279499E-01  5  4  5  4
   0.365947443804      5  5  1  1
   0.309882293433E-01  5  5  2  1
   0.365648294819      5  5  2  2
  -0.792679987063E-02  5  5  3  1
  -0.183168132043E-02  5  5  3  2
   0.335697163527      5  5  3  3
  -0.991297877552E-02  5  5  4  1
   0.123455339150E-01  5  5  4  2
   0.133865157120E-02  5  5  4  3
   0.289425776094      5  5  4  4
  -0.167883693059E-10  5  5  5  1
  -0.215548138436E-01  5  5  5  2
  -0.965291908905E-11  5  5  5  3
  -0.131266941761E-10  5  5  5  4
   0.333843820012      5  5  5  5
   0.690760021882E-10  6  1  1  1
   0.334529727916E-01  6  1  2  1
   0.404732590758E-10  6  1  2  2
  -0.299467601460E-10  6  1  3  1
   0.362243448620E-02  6  1  3  2
   0.420188601185E-10  6  1  3  3
  -0.313818188016E-10  6  1  4  1
  -0.109195188412E-01  6  1  4  2
   0.387842672203E-10  6  1  4  3
   0.401249533952E-10  6  1  4  4
   0.292935207341E-11  6  1  5  1
  -0.776803272125E-02  6  1  5  2
   0.418198184415E-10  6  1  5  3
   0.173515247309E-10  6  1  5  4
   0.812010620729E-03  6  1  5  5
   0.150866652525E-01  6  1  6  1
   0.101810665563      6  2  1  1
   0.565648222706E-11  6  2  2  1
   0.916820530427E-01  6  2  2  2
   0.723582749988E-02  6  2  3  1
  -0.186303331703E-10  6  2  3  2
   0.978950014622E-01  6  2  3  3
  -0.332858072667E-01  6  2  4  1
  -0.496319998988E-12  6  2  4  2
   0.491837115096E-02  6  2  4  3
   0.235791371864E-01  6  2  4  4
  -0.121288659047E-02  6  2  5  1
   0.496501259325E-03  6  2  5  2
  -0.968334684355E-03  6  2  5  3
   0.629528370111E-02  6  2  5  4
   0.189495746220E-01  6  2  5  5
   0.182826601081E-10  6  2  6  1
   0.392080578694E-01  6  2  6  2
  -0.810443268214E-10  6  3  1  1
   0.104186388235E-01  6  3  2  1
  -0.905628197217E-10  6  3  2  2
   0.300966532851E-11  6  3  3  1
   0.865122130774E-02  6  3  3  2
  -0.876861514171E-10  6  3  3  3
   0.311865883053E-10  6  3  4  1
   0.196205039588E-02  6  3  4  2
  -0.802026450962E-11  6  3  4  3
  -0.397196900411E-10  6  3  4  4
   0.142572238737E-10  6  3  5  1
  -0.514833380489E-02  6  3  5  2
  -0.125552199930E-10  6  3  5  3
  -0.431242541676E-11  6  3  5  4
   0.312004535672E-02  6  3  5  5
   0.228271720834E-02  6  3  6  1
  -0.570367728742E-10  6  3  6  2
   0.635181232902E-02  6  3  6  3
  -0.511264862911E-10  6  4  1  1
  -0.533952880492E-01  6  4  2  1
  -0.303505536675E-10  6  4  2  2
   0.509885180817E-11  6  4  3  1
   0.264113812713E-02  6  4  3  2
  -0.441072897132E-10  6  4  3  3
   0.146341391696E-10  6  4  4  1
  -0.188549880094E-01  6  4  4  2
  -0.192555742401E-11  6  4  4  3
  -0.178960084192E-10  6  4  4  4
   0.274327088823E-11  6  4  5  1
   0.334011898174E-01  6  4  5  2
  -0.141169437251E-10  6  4  5  3
  -0.104511538312E-09  6  4  5  4
  -0.264270088801E-01  6  4  5  5
  -0.255657268974E-02  6  4  6  1
  -0.362171855006E-10  6  4  6  2
  -0.675121761546E-02  6  4  6  3
   0.597374147186E-01  6  4  6  4
   0.306913484427E-11  6  5  1  1
   0.159839406370E-01  6  5  2  1
   0.241568362650E-02  6  5  2  2
   0.422169092084E-10  6  5  3  1
  -0.238692597688E-02  6  5  3  2
   0.569741952693E-10  6  5  3  3
   0.368114040769E-11  6  5  4  1
   0.150160964886E-01  6  5  4  2
  -0.656689628619E-10  6  5  4  3
  -0.437119543697E-10  6  5  4  4
  -0.342369813422E-02  6  5  5  1
  -0.201015335702E-01  6  5  5  2
   0.768565652547E-03  6  5  5  3
  -0.892842520634E-02  6  5  5  4
   0.157102470393E-01  6  5  5  5
  -0.467929211221E-02  6  5  6  1
  -0.158871824513E-02  6  5  6  2
   0.289015399045E-02  6  5  6  3
  -0.323746612702E-01  6  5  6  4
   0.284387063770E-01  6  5  6  5
   0.316547529872      6  6  1  1
  -0.253246382198E-11  6  6  2  1
   0.321515701105      6  6  2  2
  -0.335176754209E-02  6  6  3  1
  -0.178497234354E-10  6  6  3  2
   0.303758247766      6  6  3  3
  -0.163965516545E-01  6  6  4  1
  -0.172403757936E-11  6  6  4  2
   0.405396820529E-03  6  6  4  3
   0.262916473389      6  6  4  4
  -0.104740335563E-01  6  6  5  1
  -0.375478850867E-02  6  6  5  2
   0.153322098208E-02  6  6  5  3
  -0.198536776588E-01  6  6  5  4
   0.266895429442      6  6  5  5
   0.100599945041E-10  6  6  6  1
   0.157920231454E-01  6  6  6  2
  -0.238700725852E-10  6  6  6  3
  -0.602485838996E-10  6  6  6  4
   0.473535220551E-02  6  6  6  5
   0.267719536469      6  6  6  6
   0.197203659218E-09  7  1  1  1
   0.163806872255E-10  7  1  2  1
   0.276370296650E-01  7  1  2  2
  -0.749089248544E-10  7  1  3  1
   0.256884022924E-10  7  1  3  2
   0.237829897303E-09  7  1  3  3
  -0.152252168230E-09  7  1  4  1
  -0.151925418860E-10  7  1  4  2
   0.126880630405E-09  7  1  4  3
   0.451610221794E-10  7  1  4  4
  -0.226572235549E-01  7  1  5  1
  -0.104901175971E-01  7  1  5  2
   0.264239747726E-02  7  1  5  3
  -0.121601728953E-01  7  1  5  4
  -0.339216738466E-10  7  1  5  5
   0.359854724144E-12  7  1  6  1
   0.345265593009E-02  7  1  6  2
   0.263437484717E-10  7  1  6  3
   0.216919429467E-10  7  1  6  4
   0.228324077516E-02  7  1  6  5
   0.706358988634E-02  7  1  6  6
   0.247132756228E-01  7  1  7  1
   0.526786743567E-10  7  2  1  1
   0.563716867560E-01  7  2  2  1
   0.108461022129E-01  7  2  2  2
  -0.356041010883E-10  7  2  3  1
  -0.214733988429E-02  7  2  3  2
   0.760288681919E-11  7  2  3  3
  -0.292896817911E-10  7  2  4  1
   0.563131706785E-02  7  2  4  2
   0.965034275364E-10  7  2  4  3
   0.486235271813E-10  7  2  4  4
  -0.109957084745E-01  7  2  5  1
  -0.388169781349E-01  7  2  5  2
   0.161950819214E-02  7  2  5  3
  -0.775163627266E-02  7  2  5  4
   0.164493297476E-01  7  2  5  5
   0.107882215281E-01  7  2  6  1
   0.128943028515E-05  7  2  6  2
   0.394590999512E-02  7  2  6  3
  -0.203055027257E-01  7  2  6  4
   0.833595096386E-02  7  2  6  5
   0.302526633433E-02  7  2  6  6
   0.122964090267E-01  7  2  7  1
   0.392393958426E-01  7  2  7  2
  -0.322027316095E-09  7  3  1  1
  -0.790796936398E-11  7  3  2  1
  -0.256912303371E-02  7  3  2  2
   0.182938875560E-09  7  3  3  1
  -0.184164674477E-10  7  3  3  2
  -0.227616229237E-09  7  3  3  3
   0.139095653235E-09  7  3  4  1
  -0.587116779618E-11  7  3  4  2
  -0.678661101011E-10  7  3  4  3
  -0.841935607773E-10  7  3  4  4
   0.286018379567E-02  7  3  5  1
   0.166963527787E-02  7  3  5  2
  -0.249419605213E-02  7  3  5  3
   0.211132086418E-02  7  3  5  4
  -0.122867078816E-09  7  3  5  5
   0.734407784152E-10  7  3  6  1
   0.553307899012E-03  7  3  6  2
  -0.651822297851E-10  7  3  6  3
  -0.254543786765E-10  7  3  6  4
  -0.556622818448E-03  7  3  6  5
  -0.595095585792E-03  7  3  6  6
  -0.308403615358E-02  7  3  7  1
  -0.198347645367E-02  7  3  7  2
   0.261745935465E-02  7  3  7  3
  -0.533676793201E-09  7  4  1  1
  -0.202634110053E-10  7  4  2  1
   0.131812393002E-02  7  4  2  2
   0.966320575767E-10  7  4  3  1
  -0.564561366615E-11  7  4  3  2
  -0.432611574637E-09  7  4  3  3
   0.108567996729E-09  7  4  4  1
  -0.197797538439E-10  7  4  4  2
  -0.953455713396E-10  7  4  4  3
  -0.232408739733E-09  7  4  4  4
  -0.208344777464E-02  7  4  5  1
  -0.301164720148E-02  7  4  5  2
   0.691845684650E-03  7  4  5  3
   0.523117818201E-02  7  4  5  4
  -0.278782686470E-09  7  4  5  5
   0.169946233735E-10  7  4  6  1
   0.708876653906E-03  7  4  6  2
  -0.483474738109E-10  7  4  6  3
  -0.106103315749E-09  7  4  6  4
  -0.148127888005E-02  7  4  6  5
  -0.881362369251E-02  7  4  6  6
   0.422550559358E-02  7  4  7  1
   0.401254074016E-02  7  4  7  2
  -0.100533931491E-02  7  4  7  3
   0.107556458421E-01  7  4  7  4
  -0.119977248897      7  5  1  1
  -0.230527785212E-01  7  5  2  1
  -0.116916403089      7  5  2  2
   0.641921425376E-02  7  5  3  1
   0.191332895969E-02  7  5  3  2
  -0.952687564885E-01  7  5  3  3
   0.137014842380E-01  7  5  4  1
  -0.465920875512E-02  7  5  4  2
  -0.243386189856E-02  7  5  4  3
  -0.460597162378E-01  7  5  4  4
  -0.771669395050E-10  7  5  5  1
   0.133779436537E-01  7  5  5  2
   0.678064271398E-10  7  5  5  3
  -0.373283071120E-10  7  5  5  4
  -0.704837383425E-01  7  5  5  5
  -0.296617289212E-02  7  5  6  1
  -0.217959837273E-01  7  5  6  2
  -0.146263294002E-02  7  5  6  3
   0.576014413532E-02  7  5  6  4
  -0.153527416412E-02  7  5  6  5
  -0.309105081084E-01  7  5  6  6
   0.540262279358E-10  7  5  7  1
  -0.139636234384E-01  7  5  7  2
   0.137240339752E-09  7  5  7  3
   0.188216137120E-09  7  5  7  4
   0.621444759768E-01  7  5  7  5
  -0.197659704359E-10  7  6  1  1
   0.207949243391E-01  7  6  2  1
   0.166027603787E-03  7  6  2  2
   0.125055172347E-10  7  6  3  1
   0.472754944363E-03  7  6  3  2
   0.455797148427E-10  7  6  3  3
   0.136664534398E-10  7  6  4  1
   0.624780595160E-02  7  6  4  2
  -0.591786769328E-10  7  6  4  3
  -0.127051170081E-10  7  6  4  4
  -0.342340652677E-03  7  6  5  1
  -0.142934773583E-01  7  6  5  2
  -0.127805683084E-03  7  6  5  3
  -0.244629504516E-02  7  6  5  4
   0.101464961255E-01  7  6  5  5
   0.183156108144E-02  7  6  6  1
  -0.101036490305E-03  7  6  6  2
   0.268378247923E-02  7  6  6  3
  -0.258347946906E-01  7  6  6  4
   0.182472570762E-01  7  6  6  5
   0.177634268129E-02  7  6  6  6
   0.163859212198E-03  7  6  7  1
   0.719481351444E-02  7  6  7  2
   0.123540677989E-03  7  6  7  3
  -0.246110703640E-02  7  6  7  4
   0.311446518724E-03  7  6  7  5
   0.184001661833E-01  7  6  7  6
   0.366628747214      7  7  1  1
   0.372612364244E-01  7  7  2  1
   0.364127383756      7  7  2  2
  -0.902552535201E-02  7  7  3  1
  -0.272507726067E-02  7  7  3  2
   0.331643379884      7  7  3  3
  -0.156277248788E-01  7  7  4  1
   0.115136254591E-01  7  7  4  2
   0.255034419180E-02  7  7  4  3
   0.277239331021      7  7  4  4
   0.184381961088E-09  7  7  5  1
  -0.238209042646E-01  7  7  5  2
   0.195958605245E-09  7  7  5  3
   0.255593435305E-09  7  7  5  4
   0.320698767132      7  7  5  5
   0.273852760929E-02  7  7  6  1
   0.252076582123E-01  7  7  6  2
   0.306878232407E-02  7  7  6  3
  -0.252736581826E-01  7  7  6  4
   0.140036441296E-01  7  7  6  5
   0.257355003723      7  7  6  6
  -0.235143432503E-09  7  7  7  1
   0.201356654761E-01  7  7  7  2
   0.353802750985E-09  7  7  7  3
  -0.258837284939E-09  7  7  7  4
  -0.738326859672E-01  7  7  7  5
   0.104392375893E-01  7  7  7  6
   0.319982586213      7  7  7  7
   0.587610991198      8  8  1  1
  -0.145843823129E-10  8  8  2  1
   0.522881270204      8  8  2  2
  -0.486260852159E-02  8  8  3  1
   0.146456492767E-10  8  8  3  2
   0.540279161450      8  8  3  3
  -0.731491733695E-01  8  8  4  1
   0.187197202184E-10  8  8  4  2
   0.116658152848E-01  8  8  4  3
   0.348012258974      8  8  4  4
   0.263437992778E-01  8  8  5  1
   0.904793932666E-02  8  8  5  2
  -0.212726204811E-02  8  8  5  3
   0.151296823120E-01  8  8  5  4
   0.365648294775      8  8  5  5
   0.396650490231E-10  8  8  6  1
   0.809458584401E-01  8  8  6  2
  -0.786335857539E-10  8  8  6  3
  -0.689528434350E-10  8  8  6  4
  -0.241568361571E-02  8  8  6  5
   0.298695923985      8  8  6  6
  -0.276370294684E-01  8  8  7  1
  -0.108461021598E-01  8  8  7  2
   0.256912259616E-02  8  8  7  3
  -0.131812486583E-02  8  8  7  4
  -0.116916403243      8  8  7  5
  -0.166027580974E-03  8  8  7  6
   0.364127384047      8  8  7  7
   0.592312135807      8  8  8  8
  -0.690261463656E-09  9  8  1  1
  -0.597245803510E-01  9  8  2  1
   0.904793873632E-02  9  8  2  2
  -0.326059369934E-13  9  8  3  1
   0.207235125954E-02  9  8  3  2
  -0.651383418246E-09  9  8  3  3
   0.215860470774E-09  9  8  4  1
  -0.124277150912E-01  9  8  4  2
  -0.135592763688E-10  9  8  4  3
  -0.140155732519E-09  9  8  4  4
  -0.973935831371E-02  9  8  5  1
   0.217537004657E-01  9  8  5  2
   0.133723677990E-02  9  8  5  3
  -0.922294810824E-02  9  8  5  4
  -0.215548138898E-01  9  8  5  5
  -0.776803269233E-02  9  8  6  1
  -0.496501419412E-03  9  8  6  2
  -0.514833374233E-02  9  8  6  3
   0.334011897078E-01  9  8  6  4
  -0.110152479303E-01  9  8  6  5
   0.375478842126E-02  9  8  6  6
   0.104901175849E-01  9  8  7  1
  -0.172952544425E-01  9  8  7  2
  -0.166963525553E-02  9  8  7  3
   0.301164720788E-02  9  8  7  4
   0.133779438598E-01  9  8  7  5
  -0.102699009853E-01  9  8  7  6
  -0.238209047030E-01  9  8  7  7
  -0.904793987136E-02  9  8  8  8
   0.445906317922E-01  9  8  9  8
   0.365947443119      9  9  1  1
  -0.309882294927E-01  9  9  2  1
   0.365648294126      9  9  2  2
  -0.792679978295E-02  9  9  3  1
   0.183168136118E-02  9  9  3  2
   0.335697163066      9  9  3  3
  -0.991297870022E-02  9  9  4  1
  -0.123455340473E-01  9  9  4  2
   0.133865148574E-02  9  9  4  3
   0.289425775800      9  9  4  4
   0.749074413608E-12  9  9  5  1
   0.215548139999E-01  9  9  5  2
   0.961407169153E-12  9  9  5  3
  -0.571719477316E-10  9  9  5  4
   0.289824455730      9  9  5  5
  -0.812010586873E-03  9  9  6  1
   0.189495744254E-01  9  9  6  2
  -0.312004533386E-02  9  9  6  3
   0.264270095052E-01  9  9  6  4
  -0.157102471807E-01  9  9  6  5
   0.266895429180      9  9  6  6
  -0.369657152111E-10  9  9  7  1
  -0.164493297598E-01  9  9  7  2
  -0.128121140433E-09  9  9  7  3
  -0.228427360360E-09  9  9  7  4
  -0.536888158418E-01  9  9  7  5
  -0.101464963694E-01  9  9  7  6
   0.278101858774      9  9  7  7
   0.365648294094      9  9  8  8
   0.215548137500E-01  9  9  9  8
   0.333843819108      9  9  9  9
  -0.101810665479     10  8  1  1
   0.590320473927E-09 10  8  2  1
  -0.809458584691E-01 10  8  2  2
  -0.723582747353E-02 10  8  3  1
  -0.216845998623E-10 10  8  3  2
  -0.978950013601E-01 10  8  3  3
   0.332858072387E-01 10  8  4  1
   0.927860756977E-10 10  8  4  2
  -0.491837115073E-02 10  8  4  3
  -0.235791371542E-01 10  8  4  4
  -0.121288653183E-02 10  8  5  1
   0.496501005410E-03 10  8  5  2
  -0.968334667819E-03 10  8  5  3
   0.629528379467E-02 10  8  5  4
  -0.189495744227E-01 10  8  5  5
   0.691760884686E-10 10  8  6  1
  -0.301474987735E-01 10  8  6  2
   0.905635644602E-10 10  8  6  3
  -0.301524784307E-09 10  8  6  4
  -0.158871815490E-02 10  8  6  5
  -0.206742371684E-01 10  8  6  6
   0.345265565891E-02 10  8  7  1
   0.128957039949E-05 10  8  7  2
   0.553308061742E-03 10  8  7  3
   0.708876824856E-03 10  8  7  4
   0.217959835557E-01 10  8  7  5
  -0.101036322678E-03 10  8  7  6
  -0.252076578958E-01 10  8  7  7
  -0.916820528651E-01 10  8  8  8
  -0.496501399534E-03 10  8  9  8
  -0.189495748173E-01 10  8  9  9
   0.392080577854E-01 10  8 10  8
  -0.775820044302E-09 10  9  1  1
  -0.159839403346E-01 10  9  2  1
   0.241568268678E-02 10  9  2  2
   0.281728410030E-10 10  9  3  1
   0.238692596108E-02 10  9  3  2
  -0.565714054659E-09 10  9  3  3
  -0.375020404542E-11 10  9  4  1
  -0.150160964751E-01 10  9  4  2
  -0.771684833276E-11 10  9  4  3
  -0.365632017976E-09 10  9  4  4
  -0.342369803252E-02 10  9  5  1
   0.110152477733E-01 10  9  5  2
   0.768565610573E-03 10  9  5  3
  -0.892842500533E-02 10  9  5  4
  -0.157102474921E-01 10  9  5  5
   0.467929217892E-02 10  9  6  1
  -0.158871832975E-02 10  9  6  2
  -0.289015407034E-02 10  9  6  3
   0.323746609358E-01 10  9  6  4
  -0.124393783669E-01 10  9  6  5
   0.473535182739E-02 10  9  6  6
   0.228324069670E-02 10  9  7  1
  -0.559402192312E-02 10  9  7  2
  -0.556622750739E-03 10  9  7  3
  -0.148127876971E-02 10  9  7  4
   0.153527434916E-02 10  9  7  5
  -0.953365640944E-02 10  9  7  6
  -0.140036448478E-01 10  9  7  7
  -0.241568433155E-02 10  9  8  8
   0.201015332951E-01 10  9  9  8
   0.157102466786E-01 10  9  9  9
  -0.158871838084E-02 10  9 10  8
   0.284387058614E-01 10  9 10  9
   0.316547529688     10 10  1  1
   0.144060735563E-09 10 10  2  1
   0.298695923770     10 10  2  2
  -0.335176746173E-02 10 10  3  1
  -0.445488706688E-10 10 10  3  2
   0.303758247626     10 10  3  3
  -0.163965515897E-01 10 10  4  1
   0.199562248671E-09 10 10  4  2
   0.405396804445E-03 10 10  4  3
   0.262916473370     10 10  4  4
   0.104740336478E-01 10 10  5  1
   0.375478838665E-02 10 10  5  2
  -0.153322096255E-02 10 10  5  3
   0.198536778328E-01 10 10  5  4
   0.266895429434     10 10  5  5
  -0.857712234570E-10 10 10  6  1
   0.206742371308E-01 10 10  6  2
   0.169460070976E-10 10 10  6  3
  -0.462524185618E-09 10 10  6  4
  -0.473535217198E-02 10 10  6  5
   0.233915250768     10 10  6  6
  -0.706358989009E-02 10 10  7  1
  -0.302526626256E-02 10 10  7  2
   0.595095709897E-03 10 10  7  3
   0.881362348568E-02 10 10  7  4
  -0.309105081498E-01 10 10  7  5
  -0.177634276610E-02 10 10  7  6
   0.257355003878     10 10  7  7
   0.321515700938     10 10  8  8
  -0.375478892441E-02 10 10  9  8
   0.266895428652     10 10  9  9
  -0.157920229203E-01 10 10 10  8
  -0.473535275958E-02 10 10 10  9
   0.267719535945     10 10 10 10
   0.785164596317E-09 11  8  1  1
   0.563716869705E-01 11  8  2  1
  -0.108461015876E-01 11  8  2  2
   0.217726815764E-09 11  8  3  1
  -0.214733985733E-02 11  8  3  2
   0.863205929451E-09 11  8  3  3
  -0.309254658990E-09 11  8  4  1
   0.563131722429E-02 11  8  4  2
   0.546274566923E-10 11  8  4  3
   0.174058020113E-09 11  8  4  4
   0.109957084804E-01 11  8  5  1
  -0.172952546606E-01 11  8  5  2
  -0.161950828448E-02 11  8  5  3
   0.775163618619E-02 11  8  5  4
   0.164493299058E-01 11  8  5  5
   0.107882214844E-01 11  8  6  1
  -0.128909475884E-05 11  8  6  2
   0.394591012609E-02 11  8  6  3
  -0.203055028331E-01 11  8  6  4
   0.559402207305E-02 11  8  6  5
  -0.302526609285E-02 11  8  6  6
  -0.122964089698E-01 11  8  7  1
   0.152221726283E-01 11  8  7  2
   0.198347630284E-02 11  8  7  3
  -0.401254081139E-02 11  8  7  4
  -0.139636236885E-01 11  8  7  5
   0.650398552533E-02 11  8  7  6
   0.201356656577E-01 11  8  7  7
   0.108461028720E-01 11  8  8  8
  -0.388169782472E-01 11  8  9  8
  -0.164493299342E-01 11  8  9  9
  -0.128939734515E-05 11  8 10  8
  -0.833595087337E-02 11  8 10  9
   0.302526654816E-02 11  8 10 10
   0.392393959841E-01 11  8 11  8
  -0.119977248999     11  9  1  1
   0.230527783805E-01 11  9  2  1
  -0.116916403452     11  9  2  2
   0.641921422204E-02 11  9  3  1
  -0.191332897778E-02 11  9  3  2
  -0.952687564772E-01 11  9  3  3
   0.137014842195E-01 11  9  4  1
   0.465920877257E-02 11  9  4  2
  -0.243386190798E-02 11  9  4  3
  -0.460597164025E-01 11  9  4  4
   0.103892945462E-09 11  9  5  1
  -0.133779437343E-01 11  9  5  2
   0.112201075796E-10 11  9  5  3
   0.216223674273E-09 11  9  5  4
  -0.536888163635E-01 11  9  5  5
   0.296617275609E-02 11  9  6  1
  -0.217959838324E-01 11  9  6  2
   0.146263316867E-02 11  9  6  3
  -0.576014382085E-02 11  9  6  4
   0.153527385494E-02 11  9  6  5
  -0.309105082419E-01 11  9  6  6
  -0.773385027894E-10 11  9  7  1
   0.139636231143E-01 11  9  7  2
  -0.238629433704E-09 11  9  7  3
   0.109574059028E-09 11  9  7  4
   0.387622077531E-01 11  9  7  5
  -0.311447462994E-03 11  9  7  6
  -0.533506997494E-01 11  9  7  7
  -0.116916403271     11  9  8  8
  -0.133779438063E-01 11  9  9  8
  -0.704837391403E-01 11  9  9  9
   0.217959836037E-01 11  9 10  8
  -0.153527374154E-02 11  9 10  9
  -0.309105085148E-01 11  9 10 10
   0.139636233107E-01 11  9 11  8
   0.621444736366E-01 11  9 11  9
   0.270809054760E-09 11 10  1  1
  -0.207949245294E-01 11 10  2  1
   0.166027886626E-03 11 10  2  2
  -0.267557931716E-09 11 10  3  1
  -0.472754866181E-03 11 10  3  2
   0.693784530558E-10 11 10  3  3
   0.349093748700E-10 11 10  4  1
  -0.624780614709E-02 11 10  4  2
   0.115874086720E-10 11 10  4  3
   0.524293923977E-10 11 10  4  4
  -0.342340680599E-03 11 10  5  1
   0.102699010817E-01 11 10  5  2
  -0.127805724244E-03 11 10  5  3
  -0.244629502748E-02 11 10  5  4
  -0.101464962306E-01 11 10  5  5
  -0.183156104553E-02 11 10  6  1
  -0.101036552381E-03 11 10  6  2
  -0.268378261731E-02 11 10  6  3
   0.258347946064E-01 11 10  6  4
  -0.953365660001E-02 11 10  6  5
   0.177634273843E-02 11 10  6  6
   0.163859204551E-03 11 10  7  1
  -0.650398594594E-02 11 10  7  2
   0.123540791607E-03 11 10  7  3
  -0.246110695692E-02 11 10  7  4
  -0.311447012961E-03 11 10  7  5
  -0.866170764883E-02 11 10  7  6
  -0.104392382290E-01 11 10  7  7
  -0.166027384100E-03 11 10  8  8
   0.142934774369E-01 11 10  9  8
   0.101464969632E-01 11 10  9  9
  -0.101036704397E-03 11 10 10  8
   0.182472565626E-01 11 10 10  9
  -0.177634305730E-02 11 10 10 10
  -0.719481373411E-02 11 10 11  8
   0.311446471919E-03 11 10 11  9
   0.184001650551E-01 11 10 11 10
   0.366628747468     11 11  1  1
  -0.372612368229E-01 11 11  2  1
   0.364127384090     11 11  2  2
  -0.902552560547E-02 11 11  3  1
   0.272507746263E-02 11 11  3  2
   0.331643380209     11 11  3  3
  -0.156277249104E-01 11 11  4  1
  -0.115136256639E-01 11 11  4  2
   0.255034439505E-02 11 11  4  3
   0.277239331127     11 11  4  4
   0.284617641955E-10 11 11  5  1
   0.238209043995E-01 11 11  5  2
  -0.284572878283E-09 11 11  5  3
   0.160829953522E-09 11 11  5  4
   0.278101858937     11 11  5  5
  -0.273852771349E-02 11 11  6  1
   0.252076579535E-01 11 11  6  2
  -0.306878191538E-02 11 11  6  3
   0.252736585747E-01 11 11  6  4
  -0.140036449971E-01 11 11  6  5
   0.257355004036     11 11  6  6
  -0.130763302963E-09 11 11  7  1
  -0.201356666713E-01 11 11  7  2
  -0.159032155760E-08 11 11  7  3
  -0.437583150270E-09 11 11  7  4
  -0.533506990790E-01 11 11  7  5
  -0.104392399035E-01 11 11  7  6
   0.271873329030     11 11  7  7
   0.364127383924     11 11  8  8
   0.238209038378E-01 11 11  9  8
   0.320698763855     11 11  9  9
  -0.252076587894E-01 11 11 10  8
   0.140036432207E-01 11 11 10  9
   0.257355001894     11 11 10 10
  -0.201356658377E-01 11 11 11  8
  -0.738326947348E-01 11 11 11  9
   0.104392371225E-01 11 11 11 10
   0.319982555782     11 11 11 11
   0.137319160712      8  1  8  1
  -0.965169047793E-11  8  2  8  1
   0.347154328128E-01  8  2  8  2
  -0.907328070269E-03  8  3  8  1
   0.632347271063E-11  8  3  8  2
   0.260482339703E-01  8  3  8  3
   0.174315563016E-02  8  4  8  1
  -0.141217650815E-11  8  4  8  2
  -0.162240957206E-02  8  4  8  3
   0.196165247323E-01  8  4  8  4
   0.597245804774E-01  8  5  8  1
   0.904793927767E-02  8  5  8  2
  -0.207235128912E-02  8  5  8  3
   0.124277150976E-01  8  5  8  4
   0.445906319748E-01  8  5  8  5
  -0.217570782388E-11  8  6  8  1
   0.536809729076E-02  8  6  8  2
  -0.980554238642E-11  8  6  8  3
  -0.261104405728E-10  8  6  8  4
  -0.496501237549E-03  8  6  8  5
   0.453173648674E-02  8  6  8  6
  -0.563716869808E-01  8  7  8  1
  -0.108461021966E-01  8  7  8  2
   0.214733985766E-02  8  7  8  3
  -0.563131727200E-02  8  7  8  4
  -0.388169783579E-01  8  7  8  5
  -0.128940783489E-05  8  7  8  6
   0.392393960789E-01  8  7  8  7
  -0.221976294703E-09  9  1  8  1
  -0.263437991601E-01  9  1  8  2
  -0.123125622111E-10  9  1  8  3
   0.416518412617E-10  9  1  8  4
  -0.973935833793E-02  9  1  8  5
  -0.121288656891E-02  9  1  8  6
   0.109957085820E-01  9  1  8  7
   0.227498668364E-01  9  1  9  1
  -0.597245803442E-01  9  2  8  1
   0.904793922639E-02  9  2  8  2
   0.207235124366E-02  9  2  8  3
  -0.124277150751E-01  9  2  8  4
  -0.217537004960E-01  9  2  8  5
  -0.496501279375E-03  9  2  8  6
   0.172952546008E-01  9  2  8  7
  -0.973935815337E-02  9  2  9  1
   0.445906318440E-01  9  2  9  2
  -0.418051936994E-10  9  3  8  1
   0.212726196835E-02  9  3  8  2
  -0.625421072107E-10  9  3  8  3
  -0.104727537237E-10  9  3  8  4
   0.133723680638E-02  9  3  8  5
  -0.968334628262E-03  9  3  8  6
  -0.161950825458E-02  9  3  8  7
  -0.252102164043E-02  9  3  9  1
   0.133723688652E-02  9  3  9  2
   0.382368925283E-02  9  3  9  3
   0.353445658643E-09  9  4  8  1
  -0.151296823190E-01  9  4  8  2
  -0.167425859689E-10  9  4  8  3
   0.127025987656E-09  9  4  8  4
  -0.922294792583E-02  9  4  8  5
   0.629528368352E-02  9  4  8  6
   0.775163619020E-02  9  4  8  7
   0.174118729786E-01  9  4  9  1
  -0.922294842846E-02  9  4  9  2
  -0.269239615704E-02  9  4  9  3
   0.311429279487E-01  9  4  9  4
  -0.309882291968E-01  9  5  8  1
   0.181146453055E-11  9  5  8  2
   0.183168133215E-02  9  5  8  3
  -0.123455337679E-01  9  5  8  4
  -0.215548136739E-01  9  5  8  5
  -0.265762848909E-10  9  5  8  6
   0.164493296327E-01  9  5  8  7
  -0.420114445721E-10  9  5  9  1
   0.215548136770E-01  9  5  9  2
   0.117334259354E-09  9  5  9  3
  -0.214599300898E-09  9  5  9  4
   0.220096813624E-01  9  5  9  5
   0.159839406862E-01  9  6  8  1
  -0.241568368480E-02  9  6  8  2
  -0.238692602964E-02  9  6  8  3
   0.150160965169E-01  9  6  8  4
   0.110152478799E-01  9  6  8  5
   0.158871824038E-02  9  6  8  6
  -0.559402207314E-02  9  6  8  7
   0.342369825897E-02  9  6  9  1
  -0.201015336329E-01  9  6  9  2
  -0.768565615180E-03  9  6  9  3
   0.892842563998E-02  9  6  9  4
  -0.157102469221E-01  9  6  9  5
   0.284387062830E-01  9  6  9  6
   0.230527785764E-01  9  7  8  1
   0.281985336672E-10  9  7  8  2
  -0.191332891670E-02  9  7  8  3
   0.465920885148E-02  9  7  8  4
   0.133779437537E-01  9  7  8  5
  -0.951171899164E-05  9  7  8  6
  -0.139636238109E-01  9  7  8  7
  -0.110797647861E-09  9  7  9  1
  -0.133779435951E-01  9  7  9  2
   0.196518693130E-09  9  7  9  3
   0.731617630019E-10  9  7  9  4
  -0.839746126019E-02  9  7  9  5
   0.153527437794E-02  9  7  9  6
   0.117817171310E-01  9  7  9  7
  -0.334529727978E-01 10  1  8  1
   0.255854143370E-09 10  1  8  2
  -0.362243447637E-02 10  1  8  3
   0.109195188163E-01 10  1  8  4
  -0.776803262040E-02 10  1  8  5
   0.123890802572E-11 10  1  8  6
   0.107882213755E-01 10  1  8  7
  -0.132212886242E-09 10  1  9  1
   0.776803282804E-02 10  1  9  2
   0.358492338327E-10 10  1  9  3
  -0.167191541948E-09 10  1  9  4
   0.812010612011E-03 10  1  9  5
   0.467929217333E-02 10  1  9  6
  -0.296617280674E-02 10  1  9  7
   0.150866651731E-01 10  1 10  1
   0.564082621475E-09 10  2  8  1
  -0.536809740420E-02 10  2  8  2
  -0.292464657351E-10 10  2  8  3
   0.122480979924E-09 10  2  8  4
   0.496501416526E-03 10  2  8  5
  -0.452882255262E-02 10  2  8  6
   0.128920126307E-05 10  2  8  7
   0.121288674681E-02 10  2  9  1
   0.496500890741E-03 10  2  9  2
   0.968334647004E-03 10  2  9  3
  -0.629528357493E-02 10  2  9  4
  -0.186353421563E-09 10  2  9  5
  -0.158871805281E-02 10  2  9  6
  -0.951138182465E-05 10  2  9  7
  -0.279114848047E-10 10  2 10  1
   0.453173646618E-02 10  2 10  2
  -0.104186387744E-01 10  3  8  1
  -0.391374950043E-10 10  3  8  2
  -0.865122131402E-02 10  3  8  3