 &FCI NORB= 11,NELEC=10,MS2= 0,
  ORBSYM=3,3,4,4,3,3,4,4,1,1,1,
  ISYM=1
 &END
0.55759670301099995005  1  1  1  1  
0.086313955704200001628  1  1  1  5  
-0.01809587854110000088  1  2  1  4  
0.021692204436499998993  1  2  1  8  
-0.084463311623600004219  1  3  1  9  
0.0029307472666299998025  1  3  1  10  
-0.017575443224199998465  1  3  1  11  
-0.01809587854110000088  1  4  1  2  
0.00099300247696800002586  1  4  1  6  
0.086313955704200001628  1  5  1  1  
0.034676321338500001867  1  5  1  5  
0.00099300247696800002586  1  6  1  4  
2.5788373552399998669e-06  1  6  1  8  
0.079721604178499994031  1  7  1  9  
-0.0030367971817999999014  1  7  1  10  
0.0079638851672200004078  1  7  1  11  
0.021692204436499998993  1  8  1  2  
2.5788373552399998669e-06  1  8  1  6  
-0.084463311623600004219  1  9  1  3  
0.079721604178499994031  1  9  1  7  
0.0029307472666299998025  1  10  1  3  
-0.0030367971817999999014  1  10  1  7  
-0.017575443224199998465  1  11  1  3  
0.0079638851672200004078  1  11  1  7  
0.55759670301099995005  1  1  2  2  
0.086313955704200001628  1  1  2  6  
0.069430865620000004057  1  2  2  1  
0.010736194597100000639  1  2  2  5  
-0.066344332390200003169  1  3  2  4  
0.056112232811099997665  1  3  2  8  
-0.022836931428500000657  1  4  2  3  
0.02152172370680000002  1  4  2  7  
0.086313955704200001628  1  5  2  2  
0.034679235262400000261  1  5  2  6  
0.010736194597100000639  1  6  2  1  
0.0090605590414899999513  1  6  2  5  
0.056112232811099997665  1  7  2  4  
-0.054461568655000000549  1  7  2  8  
0.02152172370680000002  1  8  2  3  
-0.024017223303600000045  1  8  2  7  
-0.13731916072600000578  1  9  2  9  
0.00090732808603499997668  1  9  2  10  
-0.0017431555909399999802  1  9  2  11  
0.00090732808603499997668  1  10  2  9  
-0.026048233970400000437  1  10  2  10  
0.0016224095767299999155  1  10  2  11  
-0.0017431555909399999802  1  11  2  9  
0.0016224095767299999155  1  11  2  10  
-0.019616524724400001556  1  11  2  11  
0.36564829445300001121  1  1  3  3  
-0.11691640326400000449  1  1  3  7  
0.01809587854110000088  1  2  3  2  
-0.0048313672079600003886  1  2  3  6  
0.066344332390200003169  1  3  3  1  
-0.031116781478000000299  1  3  3  5  
-0.01377353257159999976  1  4  3  9  
0.0018911384668700000154  1  4  3  10  
-0.01304321835459999919  1  4  3  11  
0.018949574571799999989  1  5  3  3  
-0.021786472030799999139  1  5  3  7  
-0.00099300247696800002586  1  6  3  2  
0.003177436496030000123  1  6  3  6  
-0.056112232811099997665  1  7  3  1  
0.013929973076199999443  1  7  3  5  
0.015550280086699999268  1  8  3  9  
-0.0022903305162400001103  1  8  3  10  
0.010962469136199999922  1  8  3  11  
-0.043823974160499996888  1  9  3  4  
0.032601551971800001029  1  9  3  8  
0.0025903885879899998974  1  10  3  4  
-0.0027058557152900000395  1  10  3  8  
-0.017459221440099998574  1  11  3  4  
0.0065891162638900000262  1  11  3  8  
0.36564829445300001121  1  1  4  4  
-0.11691640326400000449  1  1  4  8  
0.037255758104600002201  1  2  4  9  
-0.0030084027446900000677  1  2  4  10  
0.021396601931799999474  1  2  4  11  
0.043109627546300002821  1  3  4  3  
-0.026755887395100000359  1  3  4  7  
0.022836931428500000657  1  4  4  1  
-0.0090862856271499998356  1  4  4  5  
0.018949574571799999989  1  5  4  4  
-0.021805495328799998772  1  5  4  8  
0.0017152806927800000499  1  6  4  9  
0.0013694320046500000742  1  6  4  10  
-0.0089028755713400006822  1  6  4  11  
-0.032898659534000000704  1  7  4  3  
0.02792724702550000021  1  7  4  7  
-0.02152172370680000002  1  8  4  1  
0.0027419289781999999812  1  8  4  5  
0.084463311623600004219  1  9  4  2  
-0.022604705618000001111  1  9  4  6  
-0.0029307472666299998025  1  10  4  2  
0.0033756231113299998113  1  10  4  6  
0.017575443224199998465  1  11  4  2  
-0.021235967367300000869  1  11  4  6  
0.086313955704200001628  1  1  5  1  
0.31010581244899998454  1  1  5  5  
0.0048313672079600003886  1  2  5  4  
0.00033205520094799998452  1  2  5  8  
-0.010985657219199999532  1  3  5  9  
-0.0072808434008299997842  1  3  5  10  
0.047236415578799997861  1  3  5  11  
0.00099300247696800002586  1  4  5  2  
-0.007509577090909999933  1  4  5  6  
0.034679235262400000261  1  5  5  1  
0.018233130091199999112  1  5  5  5  
-0.003177436496030000123  1  6  5  4  
-0.00020207291167700000534  1  6  5  8  
0.015256849173100000758  1  7  5  9  
0.0055803595411999997594  1  7  5  10  
-0.028716317442300000329  1  7  5  11  
2.5788373552399998669e-06  1  8  5  2  
0.0060505325493500003442  1  8  5  6  
0.022604705618000001111  1  9  5  3  
0.029408463954099999665  1  9  5  7  
-0.0033756231113299998113  1  10  5  3  
0.00066857636564700002706  1  10  5  7  
0.021235967367300000869  1  11  5  3  
0.0088357319675799999431  1  11  5  7  
0.086313955704200001628  1  1  6  2  
0.31010581244899998454  1  1  6  6  
0.010736194597100000639  1  2  6  1  
0.022819777094200001388  1  2  6  5  
0.031116781478000000299  1  3  6  4  
0.024563378387500001132  1  3  6  8  
0.0090862856271499998356  1  4  6  3  
0.0040235763389199997661  1  4  6  7  
0.034676321338500001867  1  5  6  2  
0.018233130091199999112  1  5  6  6  
0.0090605590414899999513  1  6  6  1  
-0.0048822141079099996841  1  6  6  5  
-0.013929973076199999443  1  7  6  4  
-0.013698798921800000791  1  7  6  8  
-0.0027419289781999999812  1  8  6  3  
-0.00069082791672200004589  1  8  6  7  
-0.033452972794699997738  1  9  6  9  
-0.010418638798899999137  1  9  6  10  
0.053395288054999996696  1  9  6  11  
-0.003622434481280000125  1  10  6  9  
-0.0086512213108799994321  1  10  6  10  
-0.0026411381396699998639  1  10  6  11  
0.010919518828700000568  1  11  6  9  
-0.0019620504004299998274  1  11  6  10  
0.018854988037299999504  1  11  6  11  
-0.11691640326400000449  1  1  7  3  
0.36412738395400001679  1  1  7  7  
-0.021692204436499998993  1  2  7  2  
-0.00033205520094799998452  1  2  7  6  
-0.056112232811099997665  1  3  7  1  
-0.024563378387500001132  1  3  7  5  
0.014835266603899999183  1  4  7  9  
-0.0023612207968199999848  1  4  7  10  
0.0042591123237899998141  1  4  7  11  
-0.021805495328799998772  1  5  7  3  
0.025207658212700000816  1  5  7  7  
-2.5788373552399998669e-06  1  6  7  2  
0.00020207291167700000534  1  6  7  6  
0.054461568655000000549  1  7  7  1  
0.013698798921800000791  1  7  7  5  
-0.017389748334800000235  1  8  7  9  
0.0028050592250699999015  1  8  7  10  
-0.0056745896270399996328  1  8  7  11  
0.032601551971800001029  1  9  7  4  
-0.052695346045400000279  1  9  7  8  
-0.0027058557152900000395  1  10  7  4  
0.0038538413377399998068  1  10  7  8  
0.0065891162638900000262  1  11  7  4  
-0.016282725255100001516  1  11  7  8  
-0.11691640326400000449  1  1  8  4  
0.36412738395400001679  1  1  8  8  
-0.039084662102300000985  1  2  8  9  
0.0036332883316899998276  1  2  8  10  
-0.0018641094247100001031  1  2  8  11  
-0.026755887395100000359  1  3  8  3  
0.04764180863410000244  1  3  8  7  
-0.02152172370680000002  1  4  8  1  
-0.0040235763389199997661  1  4  8  5  
-0.021786472030799999139  1  5  8  4  
0.025207658212700000816  1  5  8  8  
-0.0048827927146900002714  1  6  8  9  
-0.00078249568541399999299  1  6  8  10  
-0.0010025030741399999865  1  6  8  11  
0.02792724702550000021  1  7  8  3  
-0.040271331504499997822  1  7  8  7  
0.024017223303600000045  1  8  8  1  
0.00069082791672200004589  1  8  8  5  
-0.079721604178499994031  1  9  8  2  
-0.029408463954099999665  1  9  8  6  
0.0030367971817999999014  1  10  8  2  
-0.00066857636564700002706  1  10  8  6  
-0.0079638851672200004078  1  11  8  2  
-0.0088357319675799999431  1  11  8  6  
0.58761099120799997753  1  1  9  9  
-0.0048626085359999996274  1  1  9  10  
-0.073149173389700006265  1  1  9  11  
0.037255758104600002201  1  2  9  3  
-0.039084662102300000985  1  2  9  7  
0.084463311623600004219  1  3  9  2  
0.010985657219199999532  1  3  9  6  
-0.01377353257159999976  1  4  9  4  
0.014835266603899999183  1  4  9  8  
0.10181066552100000167  1  5  9  9  
0.0072358274866999999775  1  5  9  10  
-0.033285807252700000403  1  5  9  11  
0.0017152806927800000499  1  6  9  3  
-0.0048827927146900002714  1  6  9  7  
-0.079721604178499994031  1  7  9  2  
-0.015256849173100000758  1  7  9  6  
0.015550280086699999268  1  8  9  4  
-0.017389748334800000235  1  8  9  8  
0.13731916072600000578  1  9  9  1  
0.033452972794699997738  1  9  9  5  
-0.00090732808603499997668  1  10  9  1  
0.003622434481280000125  1  10  9  5  
0.0017431555909399999802  1  11  9  1  
-0.010919518828700000568  1  11  9  5  
-0.0048626085359999996274  1  1  10  9  
0.54027916145099996736  1  1  10  10  
0.011665815281200000303  1  1  10  11  
-0.0030084027446900000677  1  2  10  3  
0.0036332883316899998276  1  2  10  7  
-0.0029307472666299998025  1  3  10  2  
0.0072808434008299997842  1  3  10  6  
0.0018911384668700000154  1  4  10  4  
-0.0023612207968199999848  1  4  10  8  
0.0072358274866999999775  1  5  10  9  
0.097895001411099996647  1  5  10  10  
0.0049183711508399997198  1  5  10  11  
0.0013694320046500000742  1  6  10  3  
-0.00078249568541399999299  1  6  10  7  
0.0030367971817999999014  1  7  10  2  
-0.0055803595411999997594  1  7  10  6  
-0.0022903305162400001103  1  8  10  4  
0.0028050592250699999015  1  8  10  8  
-0.00090732808603499997668  1  9  10  1  
0.010418638798899999137  1  9  10  5  
0.026048233970400000437  1  10  10  1  
0.0086512213108799994321  1  10  10  5  
-0.0016224095767299999155  1  11  10  1  
0.0019620504004299998274  1  11  10  5  
-0.073149173389700006265  1  1  11  9  
0.011665815281200000303  1  1  11  10  
0.34801225895699999802  1  1  11  11  
0.021396601931799999474  1  2  11  3  
-0.0018641094247100001031  1  2  11  7  
0.017575443224199998465  1  3  11  2  
-0.047236415578799997861  1  3  11  6  
-0.01304321835459999919  1  4  11  4  
0.0042591123237899998141  1  4  11  8  
-0.033285807252700000403  1  5  11  9  
0.0049183711508399997198  1  5  11  10  
0.023579137170299999809  1  5  11  11  
-0.0089028755713400006822  1  6  11  3  
-0.0010025030741399999865  1  6  11  7  
-0.0079638851672200004078  1  7  11  2  
0.028716317442300000329  1  7  11  6  
0.010962469136199999922  1  8  11  4  
-0.0056745896270399996328  1  8  11  8  
0.0017431555909399999802  1  9  11  1  
-0.053395288054999996696  1  9  11  5  
-0.0016224095767299999155  1  10  11  1  
0.0026411381396699998639  1  10  11  5  
0.019616524724400001556  1  11  11  1  
-0.018854988037299999504  1  11  11  5  
0.069430865620000004057  2  1  1  2  
0.010736194597100000639  2  1  1  6  
0.55759670301099995005  2  2  1  1  
0.086313955704200001628  2  2  1  5  
-0.022836931428500000657  2  3  1  4  
0.02152172370680000002  2  3  1  8  
-0.066344332390200003169  2  4  1  3  
0.056112232811099997665  2  4  1  7  
0.010736194597100000639  2  5  1  2  
0.0090605590414899999513  2  5  1  6  
0.086313955704200001628  2  6  1  1  
0.034679235262400000261  2  6  1  5  
0.02152172370680000002  2  7  1  4  
-0.024017223303600000045  2  7  1  8  
0.056112232811099997665  2  8  1  3  
-0.054461568655000000549  2  8  1  7  
-0.13731916072600000578  2  9  1  9  
0.00090732808603499997668  2  9  1  10  
-0.0017431555909399999802  2  9  1  11  
0.00090732808603499997668  2  10  1  9  
-0.026048233970400000437  2  10  1  10  
0.0016224095767299999155  2  10  1  11  
-0.0017431555909399999802  2  11  1  9  
0.0016224095767299999155  2  11  1  10  
-0.019616524724400001556  2  11  1  11  
0.01809587854110000088  2  1  2  3  
-0.021692204436499998993  2  1  2  7  
0.55759670301099995005  2  2  2  2  
0.086313955704200001628  2  2  2  6  
0.01809587854110000088  2  3  2  1  
-0.00099300247696800002586  2  3  2  5  
-0.084463311623600004219  2  4  2  9  
0.0029307472666299998025  2  4  2  10  
-0.017575443224199998465  2  4  2  11  
-0.00099300247696800002586  2  5  2  3  
-2.5788373552399998669e-06  2  5  2  7  
0.086313955704200001628  2  6  2  2  
0.034676321338500001867  2  6  2  6  
-0.021692204436499998993  2  7  2  1  
-2.5788373552399998669e-06  2  7  2  5  
0.079721604178499994031  2  8  2  9  
-0.0030367971817999999014  2  8  2  10  
0.0079638851672200004078  2  8  2  11  
-0.084463311623600004219  2  9  2  4  
0.079721604178499994031  2  9  2  8  
0.0029307472666299998025  2  10  2  4  
-0.0030367971817999999014  2  10  2  8  
-0.017575443224199998465  2  11  2  4  
0.0079638851672200004078  2  11  2  8  
0.037255758104600002201  2  1  3  9  
-0.0030084027446900000677  2  1  3  10  
0.021396601931799999474  2  1  3  11  
0.36564829445300001121  2  2  3  3  
-0.11691640326400000449  2  2  3  7  
0.022836931428500000657  2  3  3  2  
-0.0090862856271499998356  2  3  3  6  
-0.043109627546300002821  2  4  3  4  
0.026755887395100000359  2  4  3  8  
0.0017152806927800000499  2  5  3  9  
0.0013694320046500000742  2  5  3  10  
-0.0089028755713400006822  2  5  3  11  
0.018949574571799999989  2  6  3  3  
-0.021805495328799998772  2  6  3  7  
-0.02152172370680000002  2  7  3  2  
0.0027419289781999999812  2  7  3  6  
0.032898659534000000704  2  8  3  4  
-0.02792724702550000021  2  8  3  8  
0.084463311623600004219  2  9  3  1  
-0.022604705618000001111  2  9  3  5  
-0.0029307472666299998025  2  10  3  1  
0.0033756231113299998113  2  10  3  5  
0.017575443224199998465  2  11  3  1  
-0.021235967367300000869  2  11  3  5  
-0.01809587854110000088  2  1  4  1  
0.0048313672079600003886  2  1  4  5  
0.36564829445300001121  2  2  4  4  
-0.11691640326400000449  2  2  4  8  
0.01377353257159999976  2  3  4  9  
-0.0018911384668700000154  2  3  4  10  
0.01304321835459999919  2  3  4  11  
0.066344332390200003169  2  4  4  2  
-0.031116781478000000299  2  4  4  6  
0.00099300247696800002586  2  5  4  1  
-0.003177436496030000123  2  5  4  5  
0.018949574571799999989  2  6  4  4  
-0.021786472030799999139  2  6  4  8  
-0.015550280086699999268  2  7  4  9  
0.0022903305162400001103  2  7  4  10  
-0.010962469136199999922  2  7  4  11  
-0.056112232811099997665  2  8  4  2  
0.013929973076199999443  2  8  4  6  
0.043823974160499996888  2  9  4  3  
-0.032601551971800001029  2  9  4  7  
-0.0025903885879899998974  2  10  4  3  
0.0027058557152900000395  2  10  4  7  
0.017459221440099998574  2  11  4  3  
-0.0065891162638900000262  2  11  4  7  
0.010736194597100000639  2  1  5  2  
0.022819777094200001388  2  1  5  6  
0.086313955704200001628  2  2  5  1  
0.31010581244899998454  2  2  5  5  
0.0090862856271499998356  2  3  5  4  
0.0040235763389199997661  2  3  5  8  
0.031116781478000000299  2  4  5  3  
0.024563378387500001132  2  4  5  7  
0.0090605590414899999513  2  5  5  2  
-0.0048822141079099996841  2  5  5  6  
0.034676321338500001867  2  6  5  1  
0.018233130091199999112  2  6  5  5  
-0.0027419289781999999812  2  7  5  4  
-0.00069082791672200004589  2  7  5  8  
-0.013929973076199999443  2  8  5  3  
-0.013698798921800000791  2  8  5  7  
-0.033452972794699997738  2  9  5  9  
-0.010418638798899999137  2  9  5  10  
0.053395288054999996696  2  9  5  11  
-0.003622434481280000125  2  10  5  9  
-0.0086512213108799994321  2  10  5  10  
-0.0026411381396699998639  2  10  5  11  
0.010919518828700000568  2  11  5  9  
-0.0019620504004299998274  2  11  5  10  
0.018854988037299999504  2  11  5  11  
-0.0048313672079600003886  2  1  6  3  
-0.00033205520094799998452  2  1  6  7  
0.086313955704200001628  2  2  6  2  
0.31010581244899998454  2  2  6  6  
-0.00099300247696800002586  2  3  6  1  
0.007509577090909999933  2  3  6  5  
-0.010985657219199999532  2  4  6  9  
-0.0072808434008299997842  2  4  6  10  
0.047236415578799997861  2  4  6  11  
0.003177436496030000123  2  5  6  3  
0.00020207291167700000534  2  5  6  7  
0.034679235262400000261  2  6  6  2  
0.018233130091199999112  2  6  6  6  
-2.5788373552399998669e-06  2  7  6  1  
-0.0060505325493500003442  2  7  6  5  
0.015256849173100000758  2  8  6  9  
0.0055803595411999997594  2  8  6  10  
-0.028716317442300000329  2  8  6  11  
0.022604705618000001111  2  9  6  4  
0.029408463954099999665  2  9  6  8  
-0.0033756231113299998113  2  10  6  4  
0.00066857636564700002706  2  10  6  8  
0.021235967367300000869  2  11  6  4  
0.0088357319675799999431  2  11  6  8  
-0.039084662102300000985  2  1  7  9  
0.0036332883316899998276  2  1  7  10  
-0.0018641094247100001031  2  1  7  11  
-0.11691640326400000449  2  2  7  3  
0.36412738395400001679  2  2  7  7  
-0.02152172370680000002  2  3  7  2  
-0.0040235763389199997661  2  3  7  6  
0.026755887395100000359  2  4  7  4  
-0.04764180863410000244  2  4  7  8  
-0.0048827927146900002714  2  5  7  9  
-0.00078249568541399999299  2  5  7  10  
-0.0010025030741399999865  2  5  7  11  
-0.021786472030799999139  2  6  7  3  
0.025207658212700000816  2  6  7  7  
0.024017223303600000045  2  7  7  2  
0.00069082791672200004589  2  7  7  6  
-0.02792724702550000021  2  8  7  4  
0.040271331504499997822  2  8  7  8  
-0.079721604178499994031  2  9  7  1  
-0.029408463954099999665  2  9  7  5  
0.0030367971817999999014  2  10  7  1  
-0.00066857636564700002706  2  10  7  5  
-0.0079638851672200004078  2  11  7  1  
-0.0088357319675799999431  2  11  7  5  
0.021692204436499998993  2  1  8  1  
0.00033205520094799998452  2  1  8  5  
-0.11691640326400000449  2  2  8  4  
0.36412738395400001679  2  2  8  8  
-0.014835266603899999183  2  3  8  9  
0.0023612207968199999848  2  3  8  10  
-0.0042591123237899998141  2  3  8  11  
-0.056112232811099997665  2  4  8  2  
-0.024563378387500001132  2  4  8  6  
2.5788373552399998669e-06  2  5  8  1  
-0.00020207291167700000534  2  5  8  5  
-0.021805495328799998772  2  6  8  4  
0.025207658212700000816  2  6  8  8  
0.017389748334800000235  2  7  8  9  
-0.0028050592250699999015  2  7  8  10  
0.0056745896270399996328  2  7  8  11  
0.054461568655000000549  2  8  8  2  
0.013698798921800000791  2  8  8  6  
-0.032601551971800001029  2  9  8  3  
0.052695346045400000279  2  9  8  7  
0.0027058557152900000395  2  10  8  3  
-0.0038538413377399998068  2  10  8  7  
-0.0065891162638900000262  2  11  8  3  
0.016282725255100001516  2  11  8  7  
0.037255758104600002201  2  1  9  4  
-0.039084662102300000985  2  1  9  8  
0.58761099120799997753  2  2  9  9  
-0.0048626085359999996274  2  2  9  10  
-0.073149173389700006265  2  2  9  11  
0.01377353257159999976  2  3  9  3  
-0.014835266603899999183  2  3  9  7  
0.084463311623600004219  2  4  9  1  
0.010985657219199999532  2  4  9  5  
0.0017152806927800000499  2  5  9  4  
-0.0048827927146900002714  2  5  9  8  
0.10181066552100000167  2  6  9  9  
0.0072358274866999999775  2  6  9  10  
-0.033285807252700000403  2  6  9  11  
-0.015550280086699999268  2  7  9  3  
0.017389748334800000235  2  7  9  7  
-0.079721604178499994031  2  8  9  1  
-0.015256849173100000758  2  8  9  5  
0.13731916072600000578  2  9  9  2  
0.033452972794699997738  2  9  9  6  
-0.00090732808603499997668  2  10  9  2  
0.003622434481280000125  2  10  9  6  
0.0017431555909399999802  2  11  9  2  
-0.010919518828700000568  2  11  9  6  
-0.0030084027446900000677  2  1  10  4  
0.0036332883316899998276  2  1  10  8  
-0.0048626085359999996274  2  2  10  9  
0.54027916145099996736  2  2  10  10  
0.011665815281200000303  2  2  10  11  
-0.0018911384668700000154  2  3  10  3  
0.0023612207968199999848  2  3  10  7  
-0.0029307472666299998025  2  4  10  1  
0.0072808434008299997842  2  4  10  5  
0.0013694320046500000742  2  5  10  4  
-0.00078249568541399999299  2  5  10  8  
0.0072358274866999999775  2  6  10  9  
0.097895001411099996647  2  6  10  10  
0.0049183711508399997198  2  6  10  11  
0.0022903305162400001103  2  7  10  3  
-0.0028050592250699999015  2  7  10  7  
0.0030367971817999999014  2  8  10  1  
-0.0055803595411999997594  2  8  10  5  
-0.00090732808603499997668  2  9  10  2  
0.010418638798899999137  2  9  10  6  
0.026048233970400000437  2  10  10  2  
0.0086512213108799994321  2  10  10  6  
-0.0016224095767299999155  2  11  10  2  
0.0019620504004299998274  2  11  10  6  
0.021396601931799999474  2  1  11  4  
-0.0018641094247100001031  2  1  11  8  
-0.073149173389700006265  2  2  11  9  
0.011665815281200000303  2  2  11  10  
0.34801225895699999802  2  2  11  11  
0.01304321835459999919  2  3  11  3  
-0.0042591123237899998141  2  3  11  7  
0.017575443224199998465  2  4  11  1  
-0.047236415578799997861  2  4  11  5  
-0.0089028755713400006822  2  5  11  4  
-0.0010025030741399999865  2  5  11  8  
-0.033285807252700000403  2  6  11  9  
0.0049183711508399997198  2  6  11  10  
0.023579137170299999809  2  6  11  11  
-0.010962469136199999922  2  7  11  3  
0.0056745896270399996328  2  7  11  7  
-0.0079638851672200004078  2  8  11  1  
0.028716317442300000329  2  8  11  5  
0.0017431555909399999802  2  9  11  2  
-0.053395288054999996696  2  9  11  6  
-0.0016224095767299999155  2  10  11  2  
0.0026411381396699998639  2  10  11  6  
0.019616524724400001556  2  11  11  2  
-0.018854988037299999504  2  11  11  6  
0.066344332390200003169  3  1  1  3  
-0.056112232811099997665  3  1  1  7  
0.01809587854110000088  3  2  1  2  
-0.00099300247696800002586  3  2  1  6  
0.36564829445300001121  3  3  1  1  
0.018949574571799999989  3  3  1  5  
-0.043823974160499996888  3  4  1  9  
0.0025903885879899998974  3  4  1  10  
-0.017459221440099998574  3  4  1  11  
-0.031116781478000000299  3  5  1  3  
0.013929973076199999443  3  5  1  7  
-0.0048313672079600003886  3  6  1  2  
0.003177436496030000123  3  6  1  6  
-0.11691640326400000449  3  7  1  1  
-0.021786472030799999139  3  7  1  5  
0.032601551971800001029  3  8  1  9  
-0.0027058557152900000395  3  8  1  10  
0.0065891162638900000262  3  8  1  11  
-0.01377353257159999976  3  9  1  4  
0.015550280086699999268  3  9  1  8  
0.0018911384668700000154  3  10  1  4  
-0.0022903305162400001103  3  10  1  8  
-0.01304321835459999919  3  11  1  4  
0.010962469136199999922  3  11  1  8  
0.084463311623600004219  3  1  2  9  
-0.0029307472666299998025  3  1  2  10  
0.017575443224199998465  3  1  2  11  
0.022836931428500000657  3  2  2  3  
-0.02152172370680000002  3  2  2  7  
0.36564829445300001121  3  3  2  2  
0.018949574571799999989  3  3  2  6  
-0.043109627546300002821  3  4  2  4  
0.032898659534000000704  3  4  2  8  
-0.022604705618000001111  3  5  2  9  
0.0033756231113299998113  3  5  2  10  
-0.021235967367300000869  3  5  2  11  
-0.0090862856271499998356  3  6  2  3  
0.0027419289781999999812  3  6  2  7  
-0.11691640326400000449  3  7  2  2  
-0.021805495328799998772  3  7  2  6  
0.026755887395100000359  3  8  2  4  
-0.02792724702550000021  3  8  2  8  
0.037255758104600002201  3  9  2  1  
0.0017152806927800000499  3  9  2  5  
-0.0030084027446900000677  3  10  2  1  
0.0013694320046500000742  3  10  2  5  
0.021396601931799999474  3  11  2  1  
-0.0089028755713400006822  3  11  2  5  
0.043109627546300002821  3  1  3  4  
-0.026755887395100000359  3  1  3  8  
0.01377353257159999976  3  2  3  9  
-0.0018911384668700000154  3  2  3  10  
0.01304321835459999919  3  2  3  11  
0.31183413764500000909  3  3  3  3  
-0.062086277421999999659  3  3  3  7  
0.043109627546300002821  3  4  3  1  
-0.031420494008299999777  3  4  3  5  
-0.031420494008299999777  3  5  3  4  
0.0030705482902099998956  3  5  3  8  
-0.0048418403516000000156  3  6  3  9  
0.0010869159324700000159  3  6  3  10  
-0.012626700002100000111  3  6  3  11  
-0.062086277421999999659  3  7  3  3  
0.050362757605699998154  3  7  3  7  
-0.026755887395100000359  3  8  3  1  
0.0030705482902099998956  3  8  3  5  
0.01377353257159999976  3  9  3  2  
-0.0048418403516000000156  3  9  3  6  
-0.0018911384668700000154  3  10  3  2  
0.0010869159324700000159  3  10  3  6  
0.01304321835459999919  3  11  3  2  
-0.012626700002100000111  3  11  3  6  
-0.066344332390200003169  3  1  4  2  
0.031116781478000000299  3  1  4  6  
-0.022836931428500000657  3  2  4  1  
0.0090862856271499998356  3  2  4  5  
0.31183413764500000909  3  3  4  4  
-0.062086277421999999659  3  3  4  8  
0.044019363277399997658  3  4  4  3  
-0.01679492255909999926  3  4  4  7  
0.031116781478000000299  3  5  4  2  
-0.040878084639799999733  3  5  4  6  
0.0090862856271499998356  3  6  4  1  
-0.015999327877400000564  3  6  4  5  
-0.062086277421999999659  3  7  4  4  
0.050543924954000001015  3  7  4  8  
-0.01679492255909999926  3  8  4  3  
0.023382267168200000784  3  8  4  7  
0.022749866907099999813  3  9  4  9  
-0.0025210216555800000343  3  9  4  10  
0.017411873039800001423  3  9  4  11  
-0.0025210216555800000343  3  10  4  9  
0.003823689271190000051  3  10  4  10  
-0.0026923961757800000429  3  10  4  11  
0.017411873039800001423  3  11  4  9  
-0.0026923961757800000429  3  11  4  10  
0.031142927949300000523  3  11  4  11  
-0.031116781478000000299  3  1  5  3  
-0.024563378387500001132  3  1  5  7  
-0.00099300247696800002586  3  2  5  2  
0.007509577090909999933  3  2  5  6  
0.018949574571799999989  3  3  5  1  
0.26689542917699998759  3  3  5  5  
-0.0011483564144899999476  3  4  5  9  
-0.0044124104284499997275  3  4  5  10  
0.037373434413700001855  3  4  5  11  
0.040878084639799999733  3  5  5  3  
0.027780913103200001457  3  5  5  7  
0.003177436496030000123  3  6  5  2  
-0.0094707044740099995822  3  6  5  6  
-0.021805495328799998772  3  7  5  1  
-0.030910508253700001713  3  7  5  5  
0.0041948018849900002916  3  8  5  9  
0.0020684755069700000094  3  8  5  10  
-0.0081460738520099992138  3  8  5  11  
0.0048418403516000000156  3  9  5  4  
0.00048414277308600001592  3  9  5  8  
-0.0010869159324700000159  3  10  5  4  
0.00018074460198100000363  3  10  5  8  
0.012626700002100000111  3  11  5  4  
0.003459583699010000072  3  11  5  8  
0.010985657219199999532  3  1  6  9  
0.0072808434008299997842  3  1  6  10  
-0.047236415578799997861  3  1  6  11  
-0.0090862856271499998356  3  2  6  3  
-0.0040235763389199997661  3  2  6  7  
0.018949574571799999989  3  3  6  2  
0.26689542917699998759  3  3  6  6  
0.031420494008299999777  3  4  6  4  
0.020292992292799998805  3  4  6  8  
0.0066175184355199995895  3  5  6  9  
-0.0040872950469899999026  3  5  6  10  
0.045784685001399996751  3  5  6  11  
0.015999327877400000564  3  6  6  3  
0.0087136005495600001025  3  6  6  7  
-0.021786472030799999139  3  7  6  2  
-0.030910508253700001713  3  7  6  6  
-0.0030705482902099998956  3  8  6  4  
0.00062289350054299996631  3  8  6  8  
0.0017152806927800000499  3  9  6  1  
0.01481252033910000071  3  9  6  5  
0.0013694320046500000742  3  10  6  1  
-0.0021683018496399999314  3  10  6  5  
-0.0089028755713400006822  3  11  6  1  
0.028077340274700001571  3  11  6  5  
-0.026755887395100000359  3  1  7  4  
0.04764180863410000244  3  1  7  8  
-0.014835266603899999183  3  2  7  9  
0.0023612207968199999848  3  2  7  10  
-0.0042591123237899998141  3  2  7  11  
-0.062086277421999999659  3  3  7  3  
0.29940031217399998287  3  3  7  7  
-0.032898659534000000704  3  4  7  1  
-0.020292992292799998805  3  4  7  5  
0.0030705482902099998956  3  5  7  4  
-0.028007288458000000747  3  5  7  8  
0.003228989968739999928  3  6  7  9  
-0.00078718361675399997797  3  6  7  10  
-0.0020948447086299999513  3  6  7  11  
0.050543924954000001015  3  7  7  3  
-0.063591694882599997252  3  7  7  7  
0.02792724702550000021  3  8  7  1  
-0.00062289350054299996631  3  8  7  5  
-0.015550280086699999268  3  9  7  2  
-0.00048414277308600001592  3  9  7  6  
0.0022903305162400001103  3  10  7  2  
-0.00018074460198100000363  3  10  7  6  
-0.010962469136199999922  3  11  7  2  
-0.003459583699010000072  3  11  7  6  
0.056112232811099997665  3  1  8  2  
0.024563378387500001132  3  1  8  6  
0.02152172370680000002  3  2  8  1  
0.0040235763389199997661  3  2  8  5  
-0.062086277421999999659  3  3  8  4  
0.29940031217399998287  3  3  8  8  
-0.01679492255909999926  3  4  8  3  
0.042596906697200002945  3  4  8  7  
-0.013929973076199999443  3  5  8  2  
-0.027780913103200001457  3  5  8  6  
-0.0027419289781999999812  3  6  8  1  
-0.0087136005495600001025  3  6  8  5  
0.050362757605699998154  3  7  8  4  
-0.063591694882599997252  3  7  8  8  
0.023382267168200000784  3  8  8  3  
-0.02048199012590000076  3  8  8  7  
-0.022657223606400000299  3  9  8  9  
0.0028601837935000001649  3  9  8  10  
-0.0020834479008900001762  3  9  8  11  
0.0026423974968100001452  3  10  8  9  
-0.0024941960822999998879  3  10  8  10  
0.00069184566969099998892  3  10  8  11  
-0.012160172988499999211  3  11  8  9  
0.0021113208796699999004  3  11  8  10  
0.0052311781420700002518  3  11  8  11  
-0.084463311623600004219  3  1  9  1  
-0.010985657219199999532  3  1  9  5  
0.01377353257159999976  3  2  9  4  
-0.014835266603899999183  3  2  9  8  
0.36594744346099999932  3  3  9  9  
-0.0079267998267899993092  3  3  9  10  
-0.009912978737870000584  3  3  9  11  
0.043823974160499996888  3  4  9  2  
0.0011483564144899999476  3  4  9  6  
0.022604705618000001111  3  5  9  1  
-0.0066175184355199995895  3  5  9  5  
-0.0048418403516000000156  3  6  9  4  
0.003228989968739999928  3  6  9  8  
-0.1199772489480000065  3  7  9  9  
0.0064192142379000003902  3  7  9  10  
0.013701484228699999796  3  7  9  11  
-0.032601551971800001029  3  8  9  2  
-0.0041948018849900002916  3  8  9  6  
0.022749866907099999813  3  9  9  3  
-0.022657223606400000299  3  9  9  7  
-0.0025210216555800000343  3  10  9  3  
0.0026423974968100001452  3  10  9  7  
0.017411873039800001423  3  11  9  3  
-0.012160172988499999211  3  11  9  7  
0.0029307472666299998025  3  1  10  1  
-0.0072808434008299997842  3  1  10  5  
-0.0018911384668700000154  3  2  10  4  
0.0023612207968199999848  3  2  10  8  
-0.0079267998267899993092  3  3  10  9  
0.33569716329600002291  3  3  10  10  
0.0013386515284699999125  3  3  10  11  
-0.0025903885879899998974  3  4  10  2  
0.0044124104284499997275  3  4  10  6  
-0.0033756231113299998113  3  5  10  1  
0.0040872950469899999026  3  5  10  5  