 &FCI NORB= 10,NELEC= 8,MS2= 0,
  ORBSYM=1,1,1, 2,2,2, 6,6,  5,5,
  ISYM=1
 &END
0.64596896326999997395  1  1  1  1  
0.12097780534900000327  1  1  1  2  
-0.063462025120400000766  1  1  1  3  
0.12097780534900000327  1  2  1  1  
0.066807764571199995673  1  2  1  2  
-0.036540961275799997698  1  2  1  3  
-0.063462025120400000766  1  3  1  1  
-0.036540961275799997698  1  3  1  2  
0.031509243828600000392  1  3  1  3  
0.062826017647300003155  1  4  1  4  
0.02647278130949999933  1  4  1  5  
-0.0223679716959000012  1  4  1  6  
0.02647278130949999933  1  5  1  4  
0.015796719749000001642  1  5  1  5  
-0.016395703203199999548  1  5  1  6  
-0.0223679716959000012  1  6  1  4  
-0.016395703203199999548  1  6  1  5  
0.029901829235199999663  1  6  1  6  
-0.088656742780899994161  1  7  1  8  
-0.088656742780899994161  1  8  1  7  
-0.027609880056399999093  1  9  1  10  
-0.027609880056399999093  1  10  1  9  
0.12097780534900000327  1  1  2  1  
0.46997239165299997676  1  1  2  2  
-0.12516193190600000129  1  1  2  3  
0.066807764571199995673  1  2  2  1  
0.032195641406499997395  1  2  2  2  
-0.038999048740999998908  1  2  2  3  
-0.036540961275799997698  1  3  2  1  
-0.031683943599000001512  1  3  2  2  
0.021097311500100000142  1  3  2  3  
-0.083528224030000000622  1  4  2  4  
0.0070140161480099997432  1  4  2  5  
-0.056599799536799999533  1  4  2  6  
-0.023765196802599999198  1  5  2  4  
-0.0035829461721399997846  1  5  2  5  
-0.023172094473300000605  1  5  2  6  
0.0065432035464599996866  1  6  2  4  
-0.0038489405890799999709  1  6  2  5  
0.0096157349850099996941  1  6  2  6  
0.00071575949635399995028  1  7  2  8  
0.00071575949635399995028  1  8  2  7  
0.017644571771200000948  1  9  2  10  
0.017644571771200000948  1  10  2  9  
-0.063462025120400000766  1  1  3  1  
-0.12516193190600000129  1  1  3  2  
0.39502060009099998483  1  1  3  3  
-0.036540961275799997698  1  2  3  1  
-0.038999048740999998908  1  2  3  2  
0.035148372120000000163  1  2  3  3  
0.031509243828600000392  1  3  3  1  
0.021097311500100000142  1  3  3  2  
-0.022946035281700000175  1  3  3  3  
0.013780397524400000639  1  4  3  4  
0.041833317547400002134  1  4  3  5  
0.02598491063889999883  1  4  3  6  
0.010524062402599999172  1  5  3  4  
0.0052156723724999997857  1  5  3  5  
0.011587062081699999599  1  5  3  6  
-0.0032784331575400000106  1  6  3  4  
-0.0056028403610000002827  1  6  3  5  
-0.0084338646697400005553  1  6  3  6  
-0.019364118929500000882  1  7  3  8  
-0.019364118929500000882  1  8  3  7  
-0.0048082561254200002418  1  9  3  10  
-0.0048082561254200002418  1  10  3  9  
0.43912089210499999359  1  1  4  4  
0.081908739358699994559  1  1  4  5  
0.0066544662181500001744  1  1  4  6  
0.0048310798132200002963  1  2  4  4  
0.015079349328200000735  1  2  4  5  
-0.022005311381700001089  1  2  4  6  
-0.0096060066592399996621  1  3  4  4  
-0.0024651933591599999897  1  3  4  5  
0.0015577389618000000212  1  3  4  6  
0.062826017647300003155  1  4  4  1  
-0.083528224030000000622  1  4  4  2  
0.013780397524400000639  1  4  4  3  
0.02647278130949999933  1  5  4  1  
-0.023765196802599999198  1  5  4  2  
0.010524062402599999172  1  5  4  3  
-0.0223679716959000012  1  6  4  1  
0.0065432035464599996866  1  6  4  2  
-0.0032784331575400000106  1  6  4  3  
-0.056524487267200003437  1  7  4  10  
-0.056524487267200003437  1  8  4  9  
-0.030100516889099999257  1  9  4  8  
-0.030100516889099999257  1  10  4  7  
0.081908739358699994559  1  1  5  4  
0.2876850916939999725  1  1  5  5  
-0.044347763658700002642  1  1  5  6  
0.015079349328200000735  1  2  5  4  
-7.4794882062900004465e-05  1  2  5  5  
-0.017330961115400000949  1  2  5  6  
-0.0024651933591599999897  1  3  5  4  
-0.0099843997954599996575  1  3  5  5  
0.0051184161367099998557  1  3  5  6  
0.02647278130949999933  1  4  5  1  
0.0070140161480099997432  1  4  5  2  
0.041833317547400002134  1  4  5  3  
0.015796719749000001642  1  5  5  1  
-0.0035829461721399997846  1  5  5  2  
0.0052156723724999997857  1  5  5  3  
-0.016395703203199999548  1  6  5  1  
-0.0038489405890799999709  1  6  5  2  
-0.0056028403610000002827  1  6  5  3  
-0.021556339461499998689  1  7  5  10  
-0.021556339461499998689  1  8  5  9  
-0.013948434705799999181  1  9  5  8  
-0.013948434705799999181  1  10  5  7  
0.0066544662181500001744  1  1  6  4  
-0.044347763658700002642  1  1  6  5  
0.48391293265899998355  1  1  6  6  
-0.022005311381700001089  1  2  6  4  
-0.017330961115400000949  1  2  6  5  
0.032093807869799997889  1  2  6  6  
0.0015577389618000000212  1  3  6  4  
0.0051184161367099998557  1  3  6  5  
-0.022348977341400001057  1  3  6  6  
-0.0223679716959000012  1  4  6  1  
-0.056599799536799999533  1  4  6  2  
0.02598491063889999883  1  4  6  3  
-0.016395703203199999548  1  5  6  1  
-0.023172094473300000605  1  5  6  2  
0.011587062081699999599  1  5  6  3  
0.029901829235199999663  1  6  6  1  
0.0096157349850099996941  1  6  6  2  
-0.0084338646697400005553  1  6  6  3  
0.033855249130700003357  1  7  6  10  
0.033855249130700003357  1  8  6  9  
0.015301828210599999203  1  9  6  8  
0.015301828210599999203  1  10  6  7  
0.52565373262100001384  1  1  7  7  
0.061219205053100002323  1  2  7  7  
-0.023067082177899999457  1  3  7  7  
0.075486546209500002269  1  4  7  9  
0.032664135045599999863  1  5  7  9  
-0.031590804213500002506  1  6  7  9  
0.088656742780899994161  1  7  7  1  
-0.00071575949635399995028  1  7  7  2  
0.019364118929500000882  1  7  7  3  
0.030100516889099999257  1  9  7  4  
0.013948434705799999181  1  9  7  5  
-0.015301828210599999203  1  9  7  6  
0.52565373262100001384  1  1  8  8  
0.061219205053100002323  1  2  8  8  
-0.023067082177899999457  1  3  8  8  
0.075486546209500002269  1  4  8  10  
0.032664135045599999863  1  5  8  10  
-0.031590804213500002506  1  6  8  10  
0.088656742780899994161  1  8  8  1  
-0.00071575949635399995028  1  8  8  2  
0.019364118929500000882  1  8  8  3  
0.030100516889099999257  1  10  8  4  
0.013948434705799999181  1  10  8  5  
-0.015301828210599999203  1  10  8  6  
0.42655929800999997648  1  1  9  9  
0.021436426758899999878  1  2  9  9  
-0.010550213208699999248  1  3  9  9  
0.075486546209500002269  1  4  9  7  
0.032664135045599999863  1  5  9  7  
-0.031590804213500002506  1  6  9  7  
0.056524487267200003437  1  7  9  4  
0.021556339461499998689  1  7  9  5  
-0.033855249130700003357  1  7  9  6  
0.027609880056399999093  1  9  9  1  
-0.017644571771200000948  1  9  9  2  
0.0048082561254200002418  1  9  9  3  
0.42655929800999997648  1  1  10  10  
0.021436426758899999878  1  2  10  10  
-0.010550213208699999248  1  3  10  10  
0.075486546209500002269  1  4  10  8  
0.032664135045599999863  1  5  10  8  
-0.031590804213500002506  1  6  10  8  
0.056524487267200003437  1  8  10  4  
0.021556339461499998689  1  8  10  5  
-0.033855249130700003357  1  8  10  6  
0.027609880056399999093  1  10  10  1  
-0.017644571771200000948  1  10  10  2  
0.0048082561254200002418  1  10  10  3  
0.12097780534900000327  2  1  1  1  
0.066807764571199995673  2  1  1  2  
-0.036540961275799997698  2  1  1  3  
0.46997239165299997676  2  2  1  1  
0.032195641406499997395  2  2  1  2  
-0.031683943599000001512  2  2  1  3  
-0.12516193190600000129  2  3  1  1  
-0.038999048740999998908  2  3  1  2  
0.021097311500100000142  2  3  1  3  
-0.083528224030000000622  2  4  1  4  
-0.023765196802599999198  2  4  1  5  
0.0065432035464599996866  2  4  1  6  
0.0070140161480099997432  2  5  1  4  
-0.0035829461721399997846  2  5  1  5  
-0.0038489405890799999709  2  5  1  6  
-0.056599799536799999533  2  6  1  4  
-0.023172094473300000605  2  6  1  5  
0.0096157349850099996941  2  6  1  6  
0.00071575949635399995028  2  7  1  8  
0.00071575949635399995028  2  8  1  7  
0.017644571771200000948  2  9  1  10  
0.017644571771200000948  2  10  1  9  
0.066807764571199995673  2  1  2  1  
0.032195641406499997395  2  1  2  2  
-0.038999048740999998908  2  1  2  3  
0.032195641406499997395  2  2  2  1  
0.44926653641999997335  2  2  2  2  
-0.071783799561000005696  2  2  2  3  
-0.038999048740999998908  2  3  2  1  
-0.071783799561000005696  2  3  2  2  
0.054406404205000001573  2  3  2  3  
0.14740243825200000094  2  4  2  4  
-0.018752185802299998346  2  4  2  5  
0.092228403272899994736  2  4  2  6  
-0.018752185802299998346  2  5  2  4  
0.025068002361799998634  2  5  2  5  
-0.0010546061814500000235  2  5  2  6  
0.092228403272899994736  2  6  2  4  
-0.0010546061814500000235  2  6  2  5  
0.086966875800399995322  2  6  2  6  
-0.017266693883099999002  2  7  2  8  
-0.017266693883099999002  2  8  2  7  
-0.026030097068899998858  2  9  2  10  
-0.026030097068899998858  2  10  2  9  
-0.036540961275799997698  2  1  3  1  
-0.038999048740999998908  2  1  3  2  
0.035148372120000000163  2  1  3  3  
-0.031683943599000001512  2  2  3  1  
-0.071783799561000005696  2  2  3  2  
0.354804614661999973  2  2  3  3  
0.021097311500100000142  2  3  3  1  
0.054406404205000001573  2  3  3  2  
-0.04401819575560000225  2  3  3  3  
-0.013008921163699999415  2  4  3  4  
-0.080095666041700000481  2  4  3  5  
-0.039829217057299998173  2  4  3  6  
-0.016237416085999999832  2  5  3  4  
0.036628815362800000444  2  5  3  5  
0.002629150209730000097  2  5  3  6  
-0.018815475114500001402  2  6  3  4  
-0.032712297989000001242  2  6  3  5  
-0.040573135119599999798  2  6  3  6  
0.0071030319555299998441  2  7  3  8  
0.0071030319555299998441  2  8  3  7  
0.0022019716268200000345  2  9  3  10  
0.0022019716268200000345  2  10  3  9  
0.0048310798132200002963  2  1  4  4  
0.015079349328200000735  2  1  4  5  
-0.022005311381700001089  2  1  4  6  
0.43677240425300001281  2  2  4  4  
0.047975280721599997125  2  2  4  5  
0.061789073741800003281  2  2  4  6  
-0.062360759148000002861  2  3  4  4  
-0.03481043369100000201  2  3  4  5  
-0.010507449671300000266  2  3  4  6  
-0.083528224030000000622  2  4  4  1  
0.14740243825200000094  2  4  4  2  
-0.013008921163699999415  2  4  4  3  
0.0070140161480099997432  2  5  4  1  
-0.018752185802299998346  2  5  4  2  
-0.016237416085999999832  2  5  4  3  
-0.056599799536799999533  2  6  4  1  
0.092228403272899994736  2  6  4  2  
-0.018815475114500001402  2  6  4  3  
0.020301770791800000798  2  7  4  10  
0.020301770791800000798  2  8  4  9  
0.024715521090100001089  2  9  4  8  
0.024715521090100001089  2  10  4  7  
0.015079349328200000735  2  1  5  4  
-7.4794882062900004465e-05  2  1  5  5  
-0.017330961115400000949  2  1  5  6  
0.047975280721599997125  2  2  5  4  
0.30073098386100000079  2  2  5  5  
-0.011307729056300000123  2  2  5  6  
-0.03481043369100000201  2  3  5  4  
-0.0010027983856600000863  2  3  5  5  
0.010868809122999999184  2  3  5  6  
-0.023765196802599999198  2  4  5  1  
-0.018752185802299998346  2  4  5  2  
-0.080095666041700000481  2  4  5  3  
-0.0035829461721399997846  2  5  5  1  
0.025068002361799998634  2  5  5  2  
0.036628815362800000444  2  5  5  3  
-0.023172094473300000605  2  6  5  1  
-0.0010546061814500000235  2  6  5  2  
-0.032712297989000001242  2  6  5  3  
0.00077055392432299996911  2  7  5  10  
0.00077055392432299996911  2  8  5  9  
0.0057548163568899995957  2  9  5  8  
0.0057548163568899995957  2  10  5  7  
-0.022005311381700001089  2  1  6  4  
-0.017330961115400000949  2  1  6  5  
0.032093807869799997889  2  1  6  6  
0.061789073741800003281  2  2  6  4  
-0.011307729056300000123  2  2  6  5  
0.45009581977399998332  2  2  6  6  
-0.010507449671300000266  2  3  6  4  
0.010868809122999999184  2  3  6  5  
-0.085272781822299997811  2  3  6  6  
0.0065432035464599996866  2  4  6  1  
0.092228403272899994736  2  4  6  2  
-0.039829217057299998173  2  4  6  3  
-0.0038489405890799999709  2  5  6  1  
-0.0010546061814500000235  2  5  6  2  
0.002629150209730000097  2  5  6  3  
0.0096157349850099996941  2  6  6  1  
0.086966875800399995322  2  6  6  2  
-0.040573135119599999798  2  6  6  3  
0.00033407125117800002363  2  7  6  10  
0.00033407125117800002363  2  8  6  9  
-0.0030274765118699998104  2  9  6  8  
-0.0030274765118699998104  2  10  6  7  
0.061219205053100002323  2  1  7  7  
0.41656312561899999647  2  2  7  7  
-0.086684386466900006929  2  3  7  7  
-0.095665188278399995725  2  4  7  9  
0.0088901574930200007868  2  5  7  9  
-0.06048708832849999939  2  6  7  9  
-0.00071575949635399995028  2  7  7  1  
0.017266693883099999002  2  7  7  2  
-0.0071030319555299998441  2  7  7  3  
-0.024715521090100001089  2  9  7  4  
-0.0057548163568899995957  2  9  7  5  
0.0030274765118699998104  2  9  7  6  
0.061219205053100002323  2  1  8  8  
0.41656312561899999647  2  2  8  8  
-0.086684386466900006929  2  3  8  8  
-0.095665188278399995725  2  4  8  10  
0.0088901574930200007868  2  5  8  10  
-0.06048708832849999939  2  6  8  10  
-0.00071575949635399995028  2  8  8  1  
0.017266693883099999002  2  8  8  2  
-0.0071030319555299998441  2  8  8  3  
-0.024715521090100001089  2  10  8  4  
-0.0057548163568899995957  2  10  8  5  
0.0030274765118699998104  2  10  8  6  
0.021436426758899999878  2  1  9  9  
0.38387148332999998512  2  2  9  9  
-0.057076534117999996876  2  3  9  9  
-0.095665188278399995725  2  4  9  7  
0.0088901574930200007868  2  5  9  7  
-0.06048708832849999939  2  6  9  7  
-0.020301770791800000798  2  7  9  4  
-0.00077055392432299996911  2  7  9  5  
-0.00033407125117800002363  2  7  9  6  
-0.017644571771200000948  2  9  9  1  
0.026030097068899998858  2  9  9  2  
-0.0022019716268200000345  2  9  9  3  
0.021436426758899999878  2  1  10  10  
0.38387148332999998512  2  2  10  10  
-0.057076534117999996876  2  3  10  10  
-0.095665188278399995725  2  4  10  8  
0.0088901574930200007868  2  5  10  8  
-0.06048708832849999939  2  6  10  8  
-0.020301770791800000798  2  8  10  4  
-0.00077055392432299996911  2  8  10  5  
-0.00033407125117800002363  2  8  10  6  
-0.017644571771200000948  2  10  10  1  
0.026030097068899998858  2  10  10  2  
-0.0022019716268200000345  2  10  10  3  
-0.063462025120400000766  3  1  1  1  
-0.036540961275799997698  3  1  1  2  
0.031509243828600000392  3  1  1  3  
-0.12516193190600000129  3  2  1  1  
-0.038999048740999998908  3  2  1  2  
0.021097311500100000142  3  2  1  3  
0.39502060009099998483  3  3  1  1  
0.035148372120000000163  3  3  1  2  
-0.022946035281700000175  3  3  1  3  
0.013780397524400000639  3  4  1  4  
0.010524062402599999172  3  4  1  5  
-0.0032784331575400000106  3  4  1  6  
0.041833317547400002134  3  5  1  4  
0.0052156723724999997857  3  5  1  5  
-0.0056028403610000002827  3  5  1  6  
0.02598491063889999883  3  6  1  4  
0.011587062081699999599  3  6  1  5  
-0.0084338646697400005553  3  6  1  6  
-0.019364118929500000882  3  7  1  8  
-0.019364118929500000882  3  8  1  7  
-0.0048082561254200002418  3  9  1  10  
-0.0048082561254200002418  3  10  1  9  
-0.036540961275799997698  3  1  2  1  
-0.031683943599000001512  3  1  2  2  
0.021097311500100000142  3  1  2  3  
-0.038999048740999998908  3  2  2  1  
-0.071783799561000005696  3  2  2  2  
0.054406404205000001573  3  2  2  3  
0.035148372120000000163  3  3  2  1  
0.354804614661999973  3  3  2  2  
-0.04401819575560000225  3  3  2  3  
-0.013008921163699999415  3  4  2  4  
-0.016237416085999999832  3  4  2  5  
-0.018815475114500001402  3  4  2  6  
-0.080095666041700000481  3  5  2  4  
0.036628815362800000444  3  5  2  5  
-0.032712297989000001242  3  5  2  6  
-0.039829217057299998173  3  6  2  4  
0.002629150209730000097  3  6  2  5  
-0.040573135119599999798  3  6  2  6  
0.0071030319555299998441  3  7  2  8  
0.0071030319555299998441  3  8  2  7  
0.0022019716268200000345  3  9  2  10  
0.0022019716268200000345  3  10  2  9  
0.031509243828600000392  3  1  3  1  
0.021097311500100000142  3  1  3  2  
-0.022946035281700000175  3  1  3  3  
0.021097311500100000142  3  2  3  1  
0.054406404205000001573  3  2  3  2  
-0.04401819575560000225  3  2  3  3  
-0.022946035281700000175  3  3  3  1  
-0.04401819575560000225  3  3  3  2  
0.31755351844399998251  3  3  3  3  
0.017401140422399999363  3  4  3  4  
-0.011601206753299999827  3  4  3  5  
0.0077901580735700000704  3  4  3  6  
-0.011601206753299999827  3  5  3  4  
0.081776413488200000446  3  5  3  5  
0.017728525060799998903  3  5  3  6  
0.0077901580735700000704  3  6  3  4  
0.017728525060799998903  3  6  3  5  
0.026677745970399999176  3  6  3  6  
-0.01471427704480000008  3  7  3  8  
-0.01471427704480000008  3  8  3  7  
-0.0070881947193499996243  3  9  3  10  
-0.0070881947193499996243  3  10  3  9  
-0.0096060066592399996621  3  1  4  4  
-0.0024651933591599999897  3  1  4  5  
0.0015577389618000000212  3  1  4  6  
-0.062360759148000002861  3  2  4  4  
-0.03481043369100000201  3  2  4  5  
-0.010507449671300000266  3  2  4  6  
0.34213809891099999927  3  3  4  4  
0.02711611089879999853  3  3  4  5  
0.019459327285600000468  3  3  4  6  
0.013780397524400000639  3  4  4  1  
-0.013008921163699999415  3  4  4  2  
0.017401140422399999363  3  4  4  3  
0.041833317547400002134  3  5  4  1  
-0.080095666041700000481  3  5  4  2  
-0.011601206753299999827  3  5  4  3  
0.02598491063889999883  3  6  4  1  
-0.039829217057299998173  3  6  4  2  
0.0077901580735700000704  3  6  4  3  
-0.0177353571191000009  3  7  4  10  
-0.0177353571191000009  3  8  4  9  
-0.0064057460437100003856  3  9  4  8  
-0.0064057460437100003856  3  10  4  7  
-0.0024651933591599999897  3  1  5  4  
-0.0099843997954599996575  3  1  5  5  
0.0051184161367099998557  3  1  5  6  
-0.03481043369100000201  3  2  5  4  
-0.0010027983856600000863  3  2  5  5  
0.010868809122999999184  3  2  5  6  
0.02711611089879999853  3  3  5  4  
0.27846478098700000459  3  3  5  5  
-0.013037480381700000329  3  3  5  6  
0.010524062402599999172  3  4  5  1  
-0.016237416085999999832  3  4  5  2  
-0.011601206753299999827  3  4  5  3  
0.0052156723724999997857  3  5  5  1  
0.036628815362800000444  3  5  5  2  
0.081776413488200000446  3  5  5  3  
0.011587062081699999599  3  6  5  1  
0.002629150209730000097  3  6  5  2  
0.017728525060799998903  3  6  5  3  
-0.007609856444799999696  3  7  5  10  
-0.007609856444799999696  3  8  5  9  
-0.0053205459129099996404  3  9  5  8  
-0.0053205459129099996404  3  10  5  7  
0.0015577389618000000212  3  1  6  4  
0.0051184161367099998557  3  1  6  5  
-0.022348977341400001057  3  1  6  6  
-0.010507449671300000266  3  2  6  4  
0.010868809122999999184  3  2  6  5  
-0.085272781822299997811  3  2  6  6  
0.019459327285600000468  3  3  6  4  
-0.013037480381700000329  3  3  6  5  
0.3562086081820000083  3  3  6  6  
-0.0032784331575400000106  3  4  6  1  
-0.018815475114500001402  3  4  6  2  
0.0077901580735700000704  3  4  6  3  
-0.0056028403610000002827  3  5  6  1  
-0.032712297989000001242  3  5  6  2  
0.017728525060799998903  3  5  6  3  
-0.0084338646697400005553  3  6  6  1  
-0.040573135119599999798  3  6  6  2  
0.026677745970399999176  3  6  6  3  
0.0088895742194599995656  3  7  6  10  
0.0088895742194599995656  3  8  6  9  
0.0012540161213599998989  3  9  6  8  
0.0012540161213599998989  3  10  6  7  
-0.023067082177899999457  3  1  7  7  
-0.086684386466900006929  3  2  7  7  
0.35412038296400000226  3  3  7  7  
0.016380121716699998918  3  4  7  9  
0.050613453316700002249  3  5  7  9  
0.028965387517999999223  3  6  7  9  
0.019364118929500000882  3  7  7  1  
-0.0071030319555299998441  3  7  7  2  
0.01471427704480000008  3  7  7  3  
0.0064057460437100003856  3  9  7  4  
0.0053205459129099996404  3  9  7  5  
-0.0012540161213599998989  3  9  7  6  
-0.023067082177899999457  3  1  8  8  
-0.086684386466900006929  3  2  8  8  
0.35412038296400000226  3  3  8  8  
0.016380121716699998918  3  4  8  10  
0.050613453316700002249  3  5  8  10  
0.028965387517999999223  3  6  8  10  
0.019364118929500000882  3  8  8  1  
-0.0071030319555299998441  3  8  8  2  
0.01471427704480000008  3  8  8  3  
0.0064057460437100003856  3  10  8  4  
0.0053205459129099996404  3  10  8  5  
-0.0012540161213599998989  3  10  8  6  
-0.010550213208699999248  3  1  9  9  
-0.057076534117999996876  3  2  9  9  
0.32205989767900000675  3  3  9  9  
0.016380121716699998918  3  4  9  7  
0.050613453316700002249  3  5  9  7  
0.028965387517999999223  3  6  9  7  
0.0177353571191000009  3  7  9  4  
0.007609856444799999696  3  7  9  5  
-0.0088895742194599995656  3  7  9  6  
0.0048082561254200002418  3  9  9  1  
-0.0022019716268200000345  3  9  9  2  
0.0070881947193499996243  3  9  9  3  
-0.010550213208699999248  3  1  10  10  
-0.057076534117999996876  3  2  10  10  
0.32205989767900000675  3  3  10  10  
0.016380121716699998918  3  4  10  8  
0.050613453316700002249  3  5  10  8  
0.028965387517999999223  3  6  10  8  
0.0177353571191000009  3  8  10  4  
0.007609856444799999696  3  8  10  5  
-0.0088895742194599995656  3  8  10  6  
0.0048082561254200002418  3  10  10  1  
-0.0022019716268200000345  3  10  10  2  
0.0070881947193499996243  3  10  10  3  
0.062826017647300003155  4  1  1  4  
0.02647278130949999933  4  1  1  5  
-0.0223679716959000012  4  1  1  6  
-0.083528224030000000622  4  2  1  4  
-0.023765196802599999198  4  2  1  5  
0.0065432035464599996866  4  2  1  6  
0.013780397524400000639  4  3  1  4  
0.010524062402599999172  4  3  1  5  
-0.0032784331575400000106  4  3  1  6  
0.43912089210499999359  4  4  1  1  
0.0048310798132200002963  4  4  1  2  
-0.0096060066592399996621  4  4  1  3  
0.081908739358699994559  4  5  1  1  
0.015079349328200000735  4  5  1  2  
-0.0024651933591599999897  4  5  1  3  
0.0066544662181500001744  4  6  1  1  
-0.022005311381700001089  4  6  1  2  
0.0015577389618000000212  4  6  1  3  
-0.030100516889099999257  4  7  1  10  
-0.030100516889099999257  4  8  1  9  
-0.056524487267200003437  4  9  1  8  
-0.056524487267200003437  4  10  1  7  
-0.083528224030000000622  4  1  2  4  
0.0070140161480099997432  4  1  2  5  
-0.056599799536799999533  4  1  2  6  
0.14740243825200000094  4  2  2  4  
-0.018752185802299998346  4  2  2  5  
0.092228403272899994736  4  2  2  6  
-0.013008921163699999415  4  3  2  4  
-0.016237416085999999832  4  3  2  5  
-0.018815475114500001402  4  3  2  6  
0.0048310798132200002963  4  4  2  1  
0.43677240425300001281  4  4  2  2  
-0.062360759148000002861  4  4  2  3  
0.015079349328200000735  4  5  2  1  
0.047975280721599997125  4  5  2  2  
-0.03481043369100000201  4  5  2  3  
-0.022005311381700001089  4  6  2  1  
0.061789073741800003281  4  6  2  2  
-0.010507449671300000266  4  6  2  3  
0.024715521090100001089  4  7  2  10  
0.024715521090100001089  4  8  2  9  
0.020301770791800000798  4  9  2  8  
0.020301770791800000798  4  10  2  7  
0.013780397524400000639  4  1  3  4  
0.041833317547400002134  4  1  3  5  
0.02598491063889999883  4  1  3  6  
-0.013008921163699999415  4  2  3  4  
-0.080095666041700000481  4  2  3  5  
-0.039829217057299998173  4  2  3  6  
0.017401140422399999363  4  3  3  4  
-0.011601206753299999827  4  3  3  5  
0.0077901580735700000704  4  3  3  6  
-0.0096060066592399996621  4  4  3  1  
-0.062360759148000002861  4  4  3  2  
0.34213809891099999927  4  4  3  3  
-0.0024651933591599999897  4  5  3  1  
-0.03481043369100000201  4  5  3  2  
0.02711611089879999853  4  5  3  3  
0.0015577389618000000212  4  6  3  1  
-0.010507449671300000266  4  6  3  2  
0.019459327285600000468  4  6  3  3  
-0.0064057460437100003856  4  7  3  10  
-0.0064057460437100003856  4  8  3  9  
-0.0177353571191000009  4  9  3  8  
-0.0177353571191000009  4  10  3  7  
0.062826017647300003155  4  1  4  1  
-0.083528224030000000622  4  1  4  2  
0.013780397524400000639  4  1  4  3  
-0.083528224030000000622  4  2  4  1  
0.14740243825200000094  4  2  4  2  
-0.013008921163699999415  4  2  4  3  
0.013780397524400000639  4  3  4  1  
-0.013008921163699999415  4  3  4  2  
0.017401140422399999363  4  3  4  3  
0.44549869285499998917  4  4  4  4  
0.053266768955699997368  4  4  4  5  
0.062900838722000002035  4  4  4  6  
0.053266768955699997368  4  5  4  4  
0.029551593794199998433  4  5  4  5  
0.0066722789585999999623  4  5  4  6  
0.062900838722000002035  4  6  4  4  
0.0066722789585999999623  4  6  4  5  
0.054800984448200001919  4  6  4  6  
-0.035387686958099996704  4  7  4  8  
-0.035387686958099996704  4  8  4  7  
-0.059872568649000000585  4  9  4  10  
-0.059872568649000000585  4  10  4  9  
0.02647278130949999933  4  1  5  1  
0.0070140161480099997432  4  1  5  2  
0.041833317547400002134  4  1  5  3  
-0.023765196802599999198  4  2  5  1  
-0.018752185802299998346  4  2  5  2  
-0.080095666041700000481  4  2  5  3  
0.010524062402599999172  4  3  5  1  
-0.016237416085999999832  4  3  5  2  
-0.011601206753299999827  4  3  5  3  
0.053266768955699997368  4  4  5  4  
0.29658306887399998875  4  4  5  5  
-0.0090016487184600008087  4  4  5  6  
0.029551593794199998433  4  5  5  4  
-0.00096902248634700004649  4  5  5  5  
-0.0083351277412399994021  4  5  5  6  
0.0066722789585999999623  4  6  5  4  
0.020661649543199999551  4  6  5  5  
0.012895746728199999898  4  6  5  6  
-0.014803977684499999498  4  7  5  8  
-0.014803977684499999498  4  8  5  7  
-0.013169286526600000251  4  9  5  10  
-0.013169286526600000251  4  10  5  9  
-0.0223679716959000012  4  1  6  1  
-0.056599799536799999533  4  1  6  2  
0.02598491063889999883  4  1  6  3  
0.0065432035464599996866  4  2  6  1  
0.092228403272899994736  4  2  6  2  
-0.039829217057299998173  4  2  6  3  
-0.0032784331575400000106  4  3  6  1  
-0.018815475114500001402  4  3  6  2  
0.0077901580735700000704  4  3  6  3  
0.062900838722000002035  4  4  6  4  
-0.0090016487184600008087  4  4  6  5  
0.44553748408499999067  4  4  6  6  
0.0066722789585999999623  4  5  6  4  
-0.0083351277412399994021  4  5  6  5  
0.062580710492300004044  4  5  6  6  
0.054800984448200001919  4  6  6  4  
0.012895746728199999898  4  6  6  5  
0.062838299043000006572  4  6  6  6  
0.012955402319400000782  4  7  6  8  
0.012955402319400000782  4  8  6  7  
0.021287420830000000627  4  9  6  10  
0.021287420830000000627  4  10  6  9  
0.075486546209500002269  4  1  7  9  
-0.095665188278399995725  4  2  7  9  
0.016380121716699998918  4  3  7  9  
0.41496542284999998751  4  4  7  7  
0.069015855160900002607  4  5  7  7  
0.012111301743399999209  4  6  7  7  
0.035387686958099996704  4  7  7  4  
0.014803977684499999498  4  7  7  5  
-0.012955402319400000782  4  7  7  6  
0.056524487267200003437  4  9  7  1  
-0.020301770791800000798  4  9  7  2  
0.0177353571191000009  4  9  7  3  
0.075486546209500002269  4  1  8  10  
-0.095665188278399995725  4  2  8  10  
0.016380121716699998918  4  3  8  10  
0.41496542284999998751  4  4  8  8  
0.069015855160900002607  4  5  8  8  
0.012111301743399999209  4  6  8  8  
0.035387686958099996704  4  8  8  4  
0.014803977684499999498  4  8  8  5  
-0.012955402319400000782  4  8  8  6  
0.056524487267200003437  4  10  8  1  
-0.020301770791800000798  4  10  8  2  
0.0177353571191000009  4  10  8  3  
0.075486546209500002269  4  1  9  7  
-0.095665188278399995725  4  2  9  7  
0.016380121716699998918  4  3  9  7  
0.39142157683700001813  4  4  9  9  
0.049372162448600001583  4  5  9  9  
0.023187896786899999529  4  6  9  9  
0.030100516889099999257  4  7  9  1  
-0.024715521090100001089  4  7  9  2  
0.0064057460437100003856  4  7  9  3  
0.059872568649000000585  4  9  9  4  
0.013169286526600000251  4  9  9  5  
-0.021287420830000000627  4  9  9  6  
0.075486546209500002269  4  1  10  8  
-0.095665188278399995725  4  2  10  8  
0.016380121716699998918  4  3  10  8  
0.39142157683700001813  4  4  10  10  
0.049372162448600001583  4  5  10  10  
0.023187896786899999529  4  6  10  10  
0.030100516889099999257  4  8  10  1  
-0.024715521090100001089  4  8  10  2  
0.0064057460437100003856  4  8  10  3  
0.059872568649000000585  4  10  10  4  
0.013169286526600000251  4  10  10  5  
-0.021287420830000000627  4  10  10  6  
0.02647278130949999933  5  1  1  4  
0.015796719749000001642  5  1  1  5  
-0.016395703203199999548  5  1  1  6  
0.0070140161480099997432  5  2  1  4  
-0.0035829461721399997846  5  2  1  5  
-0.0038489405890799999709  5  2  1  6  
0.041833317547400002134  5  3  1  4  
0.0052156723724999997857  5  3  1  5  
-0.0056028403610000002827  5  3  1  6  
0.081908739358699994559  5  4  1  1  
0.015079349328200000735  5  4  1  2  
-0.0024651933591599999897  5  4  1  3  
0.2876850916939999725  5  5  1  1  
-7.4794882062900004465e-05  5  5  1  2  
-0.0099843997954599996575  5  5  1  3  
-0.044347763658700002642  5  6  1  1  
-0.017330961115400000949  5  6  1  2  
0.0051184161367099998557  5  6  1  3  
-0.013948434705799999181  5  7  1  10  
-0.013948434705799999181  5  8  1  9  
-0.021556339461499998689  5  9  1  8  
-0.021556339461499998689  5  10  1  7  
-0.023765196802599999198  5  1  2  4  
-0.0035829461721399997846  5  1  2  5  
-0.023172094473300000605  5  1  2  6  
-0.018752185802299998346  5  2  2  4  
0.025068002361799998634  5  2  2  5  
-0.0010546061814500000235  5  2  2  6  
-0.080095666041700000481  5  3  2  4  
0.036628815362800000444  5  3  2  5  
-0.032712297989000001242  5  3  2  6  
0.015079349328200000735  5  4  2  1  
0.047975280721599997125  5  4  2  2  
-0.03481043369100000201  5  4  2  3  
-7.4794882062900004465e-05  5  5  2  1  
0.30073098386100000079  5  5  2  2  
-0.0010027983856600000863  5  5  2  3  
-0.017330961115400000949  5  6  2  1  
-0.011307729056300000123  5  6  2  2  
0.010868809122999999184  5  6  2  3  
0.0057548163568899995957  5  7  2  10  
0.0057548163568899995957  5  8  2  9  
0.00077055392432299996911  5  9  2  8  
0.00077055392432299996911  5  10  2  7  
0.010524062402599999172  5  1  3  4  
0.0052156723724999997857  5  1  3  5  
0.011587062081699999599  5  1  3  6  
-0.016237416085999999832  5  2  3  4  
0.036628815362800000444  5  2  3  5  
0.002629150209730000097  5  2  3  6  
-0.011601206753299999827  5  3  3  4  