 &FCI NORB= 16,NELEC= 16,MS2= 0,
  ORBSYM=1,1,1,1, 1,1,1,1, 1,1,1,1, 1,1,1,1,
  ISYM=1
 &END
-0.25 1 1 13 13
-0.5 1 13 13 1
-0.25 1 1 5 5
-0.5 1 5 5 1
-0.25 1 1 4 4
-0.5 1 4 4 1
-0.25 1 1 2 2
-0.5 1 2 2 1
-0.25 2 2 14 14
-0.5 2 14 14 2
-0.25 2 2 6 6
-0.5 2 6 6 2
-0.25 2 2 3 3
-0.5 2 3 3 2
-0.25 3 3 15 15
-0.5 3 15 15 3
-0.25 3 3 7 7
-0.5 3 7 7 3
-0.25 3 3 4 4
-0.5 3 4 4 3
-0.25 4 4 16 16
-0.5 4 16 16 4
-0.25 4 4 8 8
-0.5 4 8 8 4
-0.25 5 5 9 9
-0.5 5 9 9 5
-0.25 5 5 8 8
-0.5 5 8 8 5
-0.25 5 5 6 6
-0.5 5 6 6 5
-0.25 6 6 10 10
-0.5 6 10 10 6
-0.25 6 6 7 7
-0.5 6 7 7 6
-0.25 7 7 11 11
-0.5 7 11 11 7
-0.25 7 7 8 8
-0.5 7 8 8 7
-0.25 8 8 12 12
-0.5 8 12 12 8
-0.25 9 9 13 13
-0.5 9 13 13 9
-0.25 9 9 12 12
-0.5 9 12 12 9
-0.25 9 9 10 10
-0.5 9 10 10 9
-0.25 10 10 14 14
-0.5 10 14 14 10
-0.25 10 10 11 11
-0.5 10 11 11 10
-0.25 11 11 15 15
-0.5 11 15 15 11
-0.25 11 11 12 12
-0.5 11 12 12 11
-0.25 12 12 16 16
-0.5 12 16 16 12
-0.25 13 13 16 16
-0.5 13 16 16 13
-0.25 13 13 14 14
-0.5 13 14 14 13
-0.25 14 14 15 15
-0.5 14 15 15 14
-0.25 15 15 16 16
-0.5 15 16 16 15
