 &FCI NORB= 13,NELEC=10,MS2= 0,
  ORBSYM=1,1,1,1,1,1,1,1,1,1,1,1,1,
  ISYM=1
 &END
    4.74069367579         1     1     1     1
  -0.437198619016         2     1     1     1
   0.653208286057E-01     2     1     2     1
    1.04938969548         2     2     1     1
  -0.155744973719E-01     2     2     2     1
   0.740645850551         2     2     2     2
   0.241947391026E-15     3     1     1     1
  -0.527464356914E-16     3     1     2     1
   0.307913416986E-16     3     1     2     2
   0.177185818780E-01     3     1     3     1
  -0.598236500756E-15     3     2     1     1
   0.142572585682E-16     3     2     2     1
  -0.346944695195E-15     3     2     2     2
   0.211980559175E-01     3     2     3     1
   0.139783496869         3     2     3     2
   0.827939916737         3     3     1     1
  -0.622015454902E-02     3     3     2     1
   0.644652701182         3     3     2     2
   0.659194920871E-16     3     3     3     1
  -0.416333634234E-15     3     3     3     2
   0.618749368434         3     3     3     3
   0.127098885161         4     1     1     1
  -0.165771029913E-01     4     1     2     1
   0.112090335819E-01     4     1     2     2
  -0.670036942596E-16     4     1     3     1
  -0.915066633578E-16     4     1     3     2
   0.599126621949E-02     4     1     3     3
   0.278576878930E-01     4     1     4     1
  -0.105541574433         4     2     1     1
   0.672485594846E-02     4     2     2     1
  -0.623058206136E-02     4     2     2     2
  -0.680878964321E-16     4     2     3     1
   0.182145964978E-16     4     2     3     2
   0.949539549560E-02     4     2     3     3
   0.225636929525E-01     4     2     4     1
   0.128249246696         4     2     4     2
  -0.662799178411E-15     4     3     1     1
   0.117356414842E-16     4     3     2     1
  -0.537764277553E-16     4     3     2     2
  -0.217866597036E-02     4     3     3     1
   0.224828239854E-01     4     3     3     2
   0.124900090270E-15     4     3     3     3
   0.412742214538E-16     4     3     4     1
   0.411996825544E-15     4     3     4     2
   0.427040048565E-01     4     3     4     3
   0.947685053642         4     4     1     1
  -0.112149753538E-01     4     4     2     1
   0.668190949207         4     4     2     2
   0.121430643318E-15     4     4     3     1
   0.277555756156E-15     4     4     3     2
   0.575092705159         4     4     3     3
  -0.807334562059E-02     4     4     4     1
  -0.690842615575E-01     4     4     4     2
   0.693889390391E-17     4     4     4     3
   0.686899171447         4     4     4     4
  -0.182068176825E-15     5     1     1     1
  -0.372738390472E-16     5     1     2     1
  -0.124690266227E-15     5     1     2     2
  -0.438776493000E-16     5     1     3     1
  -0.518615789905E-16     5     1     3     2
  -0.102365659490E-15     5     1     3     3
  -0.183578989320E-16     5     1     4     1
  -0.245331033199E-16     5     1     4     2
   0.172697890857E-16     5     1     4     3
  -0.981160970600E-16     5     1     4     4
   0.304844279808E-01     5     1     5     1
  -0.167730177065E-15     5     2     1     1
  -0.204814068688E-16     5     2     2     1
   0.607428400254E-16     5     2     2     2
  -0.388272230564E-16     5     2     3     1
  -0.335855682443E-16     5     2     3     2
   0.287813109585E-16     5     2     3     3
  -0.200036159728E-16     5     2     4     1
  -0.374149450696E-16     5     2     4     2
   0.867460266154E-16     5     2     4     3
   0.127165014799E-16     5     2     4     4
   0.307772297283E-01     5     2     5     1
   0.133475492365         5     2     5     2
  -0.659653746257E-15     5     3     1     1
   0.722902055822E-17     5     3     2     1
  -0.265296391462E-15     5     3     2     2
  -0.127127538526E-16     5     3     3     1
   0.266171944344E-16     5     3     3     2
  -0.182057584918E-15     5     3     3     3
   0.103753345320E-16     5     3     4     1
   0.127879533927E-15     5     3     4     2
   0.262406826011E-16     5     3     4     3
  -0.254281464679E-15     5     3     4     4
  -0.130078849710E-16     5     3     5     1
  -0.151788304148E-16     5     3     5     2
   0.279860266210E-01     5     3     5     3
  -0.305254837580E-15     5     4     1     1
   0.766209931333E-17     5     4     2     1
  -0.147140757086E-15     5     4     2     2
   0.233861776406E-16     5     4     3     1
   0.119874516483E-15     5     4     3     2
  -0.720553392774E-16     5     4     3     3
  -0.146118478380E-16     5     4     4     1
   0.813442732348E-17     5     4     4     2
  -0.637595702314E-18     5     4     4     3
  -0.109716872307E-15     5     4     4     4
  -0.860244117762E-02     5     4     5     1
  -0.287160988897E-01     5     4     5     2
  -0.490059381963E-16     5     4     5     3
   0.396101195574E-01     5     4     5     4
    1.04223697953         5     5     1     1
  -0.115769927740E-01     5     5     2     1
   0.715158002223         5     5     2     2
   0.416333634234E-16     5     5     3     1
  -0.291433543964E-15     5     5     3     2
   0.597177474321         5     5     3     3
   0.379692300304E-02     5     5     4     1
  -0.462688948765E-01     5     5     4     2
  -0.183880688454E-15     5     5     4     3
   0.647305840525         5     5     4     4
  -0.180013434413E-15     5     5     5     1
  -0.136451134086E-15     5     5     5     2
  -0.352814074552E-15     5     5     5     3
  -0.120769566218E-15     5     5     5     4
   0.762851648027         5     5     5     5
   0.146704374759         6     1     1     1
  -0.232253815282E-01     6     1     2     1
   0.237972064381E-02     6     1     2     2
  -0.878203759713E-16     6     1     3     1
  -0.141813644161E-15     6     1     3     2
   0.284451494917E-03     6     1     3     3
  -0.304984919410E-02     6     1     4     1
  -0.113175660530E-01     6     1     4     2
   0.997465998687E-17     6     1     4     3
   0.755821969809E-02     6     1     4     4
   0.208444009601E-16     6     1     5     1
   0.289089628654E-16     6     1     5     2
  -0.259624271451E-17     6     1     5     3
   0.668447198123E-18     6     1     5     4
   0.307003776364E-02     6     1     5     5
   0.116517039435E-01     6     1     6     1
  -0.213091139744         6     2     1     1
   0.485745016343E-02     6     2     2     1
  -0.110742420130         6     2     2     2
  -0.858688120609E-16     6     2     3     1
  -0.548172618409E-15     6     2     3     2
  -0.738436893186E-01     6     2     3     3
  -0.111605299647E-01     6     2     4     1
  -0.230368172517E-01     6     2     4     2
  -0.819656842399E-16     6     2     4     3
  -0.725472940576E-01     6     2     4     4
   0.427432106506E-16     6     2     5     1
   0.302944641893E-18     6     2     5     2
   0.817717467368E-16     6     2     5     3
   0.616402009156E-16     6     2     5     4
  -0.102558059589         6     2     5     5
   0.212633460753E-02     6     2     6     1
   0.430297424159E-01     6     2     6     2
  -0.293949763860E-14     6     3     1     1
   0.577066606305E-16     6     3     2     1
  -0.176074432812E-14     6     3     2     2
  -0.372224923034E-02     6     3     3     1
   0.783320020373E-02     6     3     3     2
  -0.159247615095E-14     6     3     3     3
  -0.125089825651E-16     6     3     4     1
  -0.451028103754E-16     6     3     4     2
   0.971156088120E-02     6     3     4     3
  -0.130451205393E-14     6     3     4     4
   0.135009059998E-16     6     3     5     1
   0.546998699177E-16     6     3     5     2
   0.268656611104E-16     6     3     5     3
   0.336274285331E-16     6     3     5     4
  -0.152026828626E-14     6     3     5     5
   0.433680868994E-17     6     3     6     1
   0.451895465492E-15     6     3     6     2
   0.260616718450E-01     6     3     6     3
  -0.158346305324         6     4     1     1
   0.162843281137E-02     6     4     2     1
  -0.851545925747E-01     6     4     2     2
   0.212503625807E-16     6     4     3     1
  -0.346944695195E-17     6     4     3     2
  -0.498985395981E-01     6     4     3     3
  -0.351945700653E-02     6     4     4     1
   0.109598215723E-01     6     4     4     2
   0.355618312575E-16     6     4     4     3
  -0.809158328109E-01     6     4     4     4
   0.348686276608E-16     6     4     5     1
   0.489099327225E-16     6     4     5     2
   0.851785003805E-16     6     4     5     3
   0.301233984577E-16     6     4     5     4
  -0.809102330039E-01     6     4     5     5
   0.735792933882E-03     6     4     6     1
   0.277285510454E-01     6     4     6     2
   0.419803081186E-15     6     4     6     3
   0.330691898869E-01     6     4     6     4
   0.117204026730E-15     6     5     1     1
   0.105376133710E-16     6     5     2     1
   0.466145260635E-16     6     5     2     2
   0.163590684766E-16     6     5     3     1
   0.103862699001E-15     6     5     3     2
   0.638670705035E-16     6     5     3     3
   0.149325864948E-16     6     5     4     1
   0.583838251404E-16     6     5     4     2
   0.450331231695E-16     6     5     4     3
   0.365161873512E-16     6     5     4     4
  -0.831929935286E-02     6     5     5     1
  -0.255504642591E-01     6     5     5     2
  -0.685215773011E-16     6     5     5     3
  -0.299222987992E-02     6     5     5     4
   0.635233794578E-16     6     5     5     5
  -0.646651639244E-17     6     5     6     1
  -0.125940576265E-16     6     5     6     2
   0.519108260457E-16     6     5     6     3
  -0.535968008622E-17     6     5     6     4
   0.131893894410E-01     6     5     6     5
   0.445233077067         6     6     1     1
  -0.267121345088E-02     6     6     2     1
   0.383595663181         6     6     2     2
   0.149186218934E-15     6     6     3     1
   0.159594559790E-14     6     6     3     2
   0.369910113971         6     6     3     3
   0.764375287797E-02     6     6     4     1
   0.307979411205E-01     6     6     4     2
   0.867361737988E-15     6     6     4     3
   0.358299846302         6     6     4     4
  -0.359574816802E-16     6     6     5     1
   0.386216370087E-16     6     6     5     2
  -0.144071613081E-16     6     6     5     3
  -0.319536629262E-16     6     6     5     4
   0.364113098122         6     6     5     5
  -0.175343458750E-02     6     6     6     1
  -0.277354113589E-01     6     6     6     2
   0.943689570931E-15     6     6     6     3
  -0.100929870686E-01     6     6     6     4
   0.424027079113E-16     6     6     6     5
   0.311514520727         6     6     6     6
  -0.433062661998E-14     7     1     1     1
   0.401995060503E-15     7     1     2     1
  -0.803176969377E-15     7     1     2     2
   0.118468811384E-01     7     1     3     1
   0.139056950852E-01     7     1     3     2
  -0.577662917500E-15     7     1     3     3
  -0.338135552544E-15     7     1     4     1
  -0.127393755267E-15     7     1     4     2
  -0.164314215218E-02     7     1     4     3
  -0.526054894090E-15     7     1     4     4
   0.212042052212E-16     7     1     5     1
   0.186652788573E-16     7     1     5     2
  -0.107101990711E-16     7     1     5     3
  -0.988765904101E-18     7     1     5     4
  -0.737880893539E-15     7     1     5     5
  -0.141325753183E-15     7     1     6     1
   0.246113893154E-15     7     1     6     2
  -0.244801727765E-02     7     1     6     3
   0.185235941169E-15     7     1     6     4
  -0.506930796462E-17     7     1     6     5
  -0.150270421106E-15     7     1     6     6
   0.792337080477E-02     7     1     7     1
  -0.138876557416E-14     7     2     1     1
  -0.887148427636E-16     7     2     2     1
  -0.161589491787E-14     7     2     2     2
   0.111193915312E-01     7     2     3     1
   0.464451094707E-01     7     2     3     2
  -0.617561557448E-15     7     2     3     3
  -0.233238992356E-15     7     2     4     1
  -0.645750813932E-15     7     2     4     2
  -0.884540480507E-02     7     2     4     3
  -0.783173439295E-15     7     2     4     4
   0.221802268753E-16     7     2     5     1
   0.171300274549E-15     7     2     5     2
  -0.225902413344E-16     7     2     5     3
  -0.301146223958E-16     7     2     5     4
  -0.154531335644E-14     7     2     5     5
   0.204372109514E-16     7     2     6     1
   0.460569082872E-15     7     2     6     2
  -0.110577242522E-01     7     2     6     3
   0.494829871522E-15     7     2     6     4
  -0.375875308269E-16     7     2     6     5
  -0.246330733589E-15     7     2     6     6
   0.735771506224E-02     7     2     7     1
   0.267295924549E-01     7     2     7     2
   0.274104640510         7     3     1     1
  -0.458635642120E-02     7     3     2     1
   0.142618809606         7     3     2     2
   0.563785129692E-16     7     3     3     1
   0.924607612696E-15     7     3     3     2
   0.109146121868         7     3     3     3
   0.544858692279E-03     7     3     4     1
  -0.308304172198E-01     7     3     4     2
   0.307046055248E-15     7     3     4     3
   0.121109729606         7     3     4     4
  -0.504613661160E-16     7     3     5     1
  -0.565025129279E-16     7     3     5     2
  -0.111882212666E-15     7     3     5     3
  -0.463529591419E-16     7     3     5     4
   0.139043806304         7     3     5     5
   0.165305060124E-02     7     3     6     1
  -0.365048965381E-01     7     3     6     2
   0.176941794550E-15     7     3     6     3
  -0.355472172454E-01     7     3     6     4
   0.931434592153E-18     7     3     6     5
   0.189968738974E-01     7     3     6     6
  -0.228983498829E-15     7     3     7     1
  -0.527355936697E-15     7     3     7     2
   0.657180857468E-01     7     3     7     3
  -0.480581036962E-14     7     4     1     1
   0.803529335083E-16     7     4     2     1
  -0.243294967506E-14     7     4     2     2
  -0.417517425584E-02     7     4     3     1
  -0.300071684039E-01     7     4     3     2
  -0.136349265212E-14     7     4     3     3
   0.826704156520E-18     7     4     4     1
   0.304443970034E-15     7     4     4     2
   0.234634659008E-02     7     4     4     3
  -0.257779908530E-14     7     4     4     4
  -0.634755223002E-17     7     4     5     1
  -0.657806219786E-16     7     4     5     2
  -0.169817338623E-16     7     4     5     3
   0.200829960712E-16     7     4     5     4
  -0.238535319969E-14     7     4     5     5
   0.114383329197E-16     7     4     6     1
   0.837871438897E-15     7     4     6     2
  -0.143379194131E-01     7     4     6     3
   0.647485537408E-15     7     4     6     4
  -0.499335303736E-16     7     4     6     5
  -0.130451205393E-14     7     4     6     6
  -0.282257254077E-02     7     4     7     1
  -0.677575811139E-02     7     4     7     2
  -0.154043444667E-14     7     4     7     3
   0.186951318536E-01     7     4     7     4
   0.849460651466E-15     7     5     1     1
  -0.160965323294E-16     7     5     2     1
   0.507152075416E-15     7     5     2     2
  -0.133355910356E-16     7     5     3     1
  -0.551885286193E-16     7     5     3     2
   0.314356856313E-15     7     5     3     3
   0.400623844156E-17     7     5     4     1
  -0.906224720612E-16     7     5     4     2
  -0.171141215132E-16     7     5     4     3
   0.432368598042E-15     7     5     4     4
  -0.132950714918E-15     7     5     5     1
  -0.105145926688E-14     7     5     5     2
   0.125568212545E-01     7     5     5     3
  -0.704731412116E-16     7     5     5     4
   0.586594830845E-15     7     5     5     5
   0.385417989382E-17     7     5     6     1
  -0.123024575219E-15     7     5     6     2
  -0.101319928036E-16     7     5     6     3
  -0.119652633808E-15     7     5     6     4
   0.199926880606E-15     7     5     6     5
   0.791255195313E-16     7     5     6     6
  -0.866866958882E-17     7     5     7     1
  -0.168903983037E-16     7     5     7     2
   0.193641229694E-15     7     5     7     3
   0.130978850944E-16     7     5     7     4
   0.797024560804E-02     7     5     7     5
   0.111240349919E-14     7     6     1     1
   0.409015269570E-16     7     6     2     1
   0.139645239816E-14     7     6     2     2
  -0.490508449977E-02     7     6     3     1
  -0.508655230114E-01     7     6     3     2
   0.136696209907E-14     7     6     3     3
   0.897448348275E-16     7     6     4     1
   0.317454396104E-15     7     6     4     2
  -0.252894562563E-01     7     6     4     3
   0.988792381307E-15     7     6     4     4
  -0.738843489134E-17     7     6     5     1
  -0.880827711652E-16     7     6     5     2
  -0.307161623565E-16     7     6     5     3
  -0.695496799497E-16     7     6     5     4
   0.111011460441E-14     7     6     5     5
   0.403865309251E-16     7     6     6     1
  -0.225514051877E-15     7     6     6     2
  -0.298280284349E-01     7     6     6     3
  -0.330464822174E-15     7     6     6     4
  -0.109052060323E-15     7     6     6     5
  -0.231412111695E-14     7     6     6     6
  -0.313711227775E-02     7     6     7     1
  -0.918306052536E-03     7     6     7     2
  -0.888178419700E-15     7     6     7     3
   0.238712287484E-01     7     6     7     4
   0.250713768007E-16     7     6     7     5
   0.733933405137E-01     7     6     7     6
   0.445281271386         7     7     1     1
  -0.289570001386E-02     7     7     2     1
   0.370182512557         7     7     2     2
  -0.815320033709E-16     7     7     3     1
  -0.217881268583E-14     7     7     3     2
   0.367509069934         7     7     3     3
   0.166580369276E-02     7     7     4     1
   0.579483515256E-02     7     7     4     2
  -0.117267306976E-14     7     7     4     3
   0.350413172677         7     7     4     4
  -0.385893896162E-16     7     7     5     1
   0.191602764919E-16     7     7     5     2
   0.119987783946E-16     7     7     5     3
  -0.214453771933E-16     7     7     5     4
   0.353170847944         7     7     5     5
   0.580234892930E-03     7     7     6     1
  -0.200300063112E-01     7     7     6     2
  -0.188737914186E-14     7     7     6     3
  -0.498426828795E-02     7     7     6     4
   0.376314963563E-16     7     7     6     5
   0.300380609083         7     7     6     6
  -0.242861286637E-15     7     7     7     1
  -0.555111512313E-16     7     7     7     2
   0.237673338849E-01     7     7     7     3
   0.742461647718E-15     7     7     7     4
   0.792054509868E-16     7     7     7     5
   0.388578058619E-14     7     7     7     6
   0.307159107634         7     7     7     7
  -0.140534426946E-13     8     1     1     1
   0.198720705689E-14     8     1     2     1
  -0.805562214157E-15     8     1     2     2
  -0.104685908188E-01     8     1     3     1
  -0.118788080300E-01     8     1     3     2
  -0.431078783780E-15     8     1     3     3
   0.723704950134E-16     8     1     4     1
   0.838521960200E-15     8     1     4     2
   0.194480288794E-02     8     1     4     3
  -0.103492518375E-14     8     1     4     4
   0.230045393581E-16     8     1     5     1
   0.256355734584E-16     8     1     5     2
   0.539367498237E-17     8     1     5     3
  -0.121021773263E-16     8     1     5     4
  -0.821703274000E-15     8     1     5     5
  -0.845894534973E-15     8     1     6     1
   0.155257751100E-15     8     1     6     2
   0.195833865300E-02     8     1     6     3
   0.816946336968E-16     8     1     6     4
  -0.609239651176E-17     8     1     6     5
  -0.987708179134E-16     8     1     6     6
  -0.700839422767E-02     8     1     7     1
  -0.637304976475E-02     8     1     7     2
  -0.369496100383E-15     8     1     7     3
   0.272031967967E-02     8     1     7     4
   0.733841037748E-17     8     1     7     5
   0.260516476800E-02     8     1     7     6
  -0.120996962449E-15     8     1     7     7
   0.622106213695E-02     8     1     8     1
   0.115869876520E-13     8     2     1     1
  -0.429479585576E-15     8     2     2     1
   0.401805325123E-14     8     2     2     2
  -0.773569833468E-02     8     2     3     1
  -0.117557958173E-01     8     2     3     2
   0.168788594213E-14     8     2     3     3
   0.535975343968E-15     8     2     4     1
   0.147451495458E-16     8     2     4     2
   0.300675058377E-01     8     2     4     3
   0.272178113381E-14     8     2     4     4
   0.156650735550E-16     8     2     5     1
   0.208731586818E-16     8     2     5     2
   0.703843763217E-16     8     2     5     3
   0.159055511196E-16     8     2     5     4
   0.417260627092E-14     8     2     5     5
   0.685757874097E-16     8     2     6     1
  -0.177006846680E-14     8     2     6     2
   0.118717359958E-01     8     2     6     3
  -0.132793082086E-14     8     2     6     4
   0.231388076299E-16     8     2     6     5
   0.948893741359E-15     8     2     6     6
  -0.520015410100E-02     8     2     7     1
  -0.202045035189E-01     8     2     7     2
   0.202485597733E-14     8     2     7     3
   0.388524037452E-02     8     2     7     4
   0.860844468933E-17     8     2     7     5
  -0.890740536130E-02     8     2     7     6
  -0.624500451352E-15     8     2     7     7
   0.468644572950E-02     8     2     8     1
   0.327182737270E-01     8     2     8     2
  -0.168381276618         8     3     1     1
   0.458148318501E-02     8     3     2     1
  -0.451869514671E-01     8     3     2     2
   0.147885176327E-15     8     3     3     1
  -0.160201713006E-14     8     3     3     2
  -0.907963629688E-02     8     3     3     3
   0.395258741017E-02     8     3     4     1
   0.650865055856E-01     8     3     4     2
  -0.839606162373E-15     8     3     4     3
  -0.471277512251E-01     8     3     4     4
   0.338428894100E-16     8     3     5     1
   0.146039542376E-15     8     3     5     2
   0.161081128421E-15     8     3     5     3
   0.466415694042E-16     8     3     5     4
  -0.671594688390E-01     8     3     5     5
  -0.333317916788E-02     8     3     6     1
   0.164954834910E-01     8     3     6     2
  -0.114405013241E-14     8     3     6     3
   0.285942906825E-01     8     3     6     4
   0.232048172411E-16     8     3     6     5
   0.160495940767E-01     8     3     6     6
   0.173472347598E-15     8     3     7     1
   0.390312782095E-15     8     3     7     2
  -0.493987624602E-01     8     3     7     3
   0.149186218934E-14     8     3     7     4
  -0.119296103782E-15     8     3     7     5
   0.145196354939E-14     8     3     7     6
   0.354647306617E-02     8     3     7     7
   0.319189119580E-15     8     3     8     1
  -0.291086599269E-14     8     3     8     2
   0.834518461513E-01     8     3     8     3
   0.463968114916E-14     8     4     1     1
  -0.410099471743E-16     8     4     2     1
   0.134961486431E-14     8     4     2     2
   0.728675587834E-02     8     4     3     1
   0.668663427681E-01     8     4     3     2
   0.145716771982E-15     8     4     3     3
   0.257877486726E-15     8     4     4     1
   0.242861286637E-16     8     4     4     2
   0.140088593567E-01     8     4     4     3
   0.131838984174E-14     8     4     4     4
  -0.134451161720E-16     8     4     5     1
   0.388322016600E-16     8     4     5     2
   0.518295042744E-16     8     4     5     3
   0.722998814443E-16     8     4     5     4
   0.138192408905E-14     8     4     5     5
  -0.149132008825E-15     8     4     6     1
  -0.115185638805E-14     8     4     6     2
   0.187583249701E-01     8     4     6     3
  -0.843942971063E-15     8     4     6     4
   0.673994655024E-16     8     4     6     5
   0.122818422099E-14     8     4     6     6
   0.482987909364E-02     8     4     7     1
   0.141308386726E-01     8     4     7     2
   0.167921232475E-14     8     4     7     3
  -0.254244676242E-01     8     4     7     4
  -0.318276295325E-16     8     4     7     5
  -0.317309751132E-01     8     4     7     6
  -0.184921522539E-14     8     4     7     7
  -0.436137130627E-02     8     4     8     1
   0.617037631657E-02     8     4     8     2
  -0.319883008970E-14     8     4     8     3
   0.522545295425E-01     8     4     8     4
   0.296785645939E-15     8     5     1     1
  -0.165449636973E-17     8     5     2     1
   0.176841132807E-15     8     5     2     2
   0.188425155064E-16     8     5     3     1
   0.176334817205E-15     8     5     3     2
   0.218711099360E-15     8     5     3     3
  -0.218012525927E-17     8     5     4     1
   0.298624654400E-16     8     5     4     2
   0.688738691100E-16     8     5     4     3
   0.173874109965E-15     8     5     4     4
   0.544316500916E-15     8     5     5     1
   0.138533932589E-14     8     5     5     2
  -0.114849149385E-01     8     5     5     3
  -0.137585255688E-15     8     5     5     4
   0.134399145876E-15     8     5     5     5
   0.211278703283E-17     8     5     6     1
  -0.179476740385E-16     8     5     6     2
   0.502437632947E-16     8     5     6     3
   0.360785990289E-17     8     5     6     4
  -0.489625701094E-15     8     5     6     5
   0.854290888182E-16     8     5     6     6
   0.135506428442E-16     8     5     7     1
   0.311333990314E-16     8     5     7     2
   0.838372280994E-17     8     5     7     3
  -0.510794694273E-16     8     5     7     4
  -0.678885670609E-02     8     5     7     5
  -0.102594065792E-15     8     5     7     6
   0.660681945702E-16     8     5     7     7
  -0.974191960807E-17     8     5     8     1
   0.201726511729E-16     8     5     8     2
   0.642092213676E-16     8     5     8     3
   0.115424120776E-15     8     5     8     4
   0.793017612237E-02     8     5     8     5
  -0.925872363911E-14     8     6     1     1
   0.194858235450E-15     8     6     2     1
  -0.567644889427E-14     8     6     2     2
   0.180114504388E-02     8     6     3     1
   0.128958339453E-01     8     6     3     2
  -0.506018837942E-14     8     6     3     3
  -0.377397223715E-15     8     6     4     1
  -0.109591155595E-14     8     6     4     2
   0.132076957448E-01     8     6     4     3
  -0.446778031238E-14     8     6     4     4
  -0.983523528707E-18     8     6     5     1
   0.112022058702E-16     8     6     5     2
   0.287058208339E-16     8     6     5     3
   0.237567712613E-16     8     6     5     4
  -0.486224016778E-14     8     6     5     5
   0.134373306752E-15     8     6     6     1
   0.106338549077E-14     8     6     6     2
   0.147393184058E-02     8     6     6     3
   0.835269353683E-15     8     6     6     4
  -0.857023155758E-19     8     6     6     5
  -0.234984557854E-14     8     6     6     6
   0.116155953764E-02     8     6     7     1
   0.103999832822E-03     8     6     7     2
  -0.539499001029E-15     8     6     7     3
  -0.210493453010E-02     8     6     7     4
  -0.143728461205E-16     8     6     7     5
   0.464375107280E-03     8     6     7     6
  -0.182894064477E-14     8     6     7     7
  -0.915347861757E-03     8     6     8     1
   0.117728186852E-01     8     6     8     2
  -0.123165366794E-14     8     6     8     3
   0.129330375398E-01     8     6     8     4
   0.288199340895E-16     8     6     8     5
   0.183895641745E-01     8     6     8     6
  -0.190380837728         8     7     1     1
   0.279570675149E-02     8     7     2     1
  -0.120335859194         8     7     2     2
   0.132272665043E-15     8     7     3     1
   0.152482193538E-14     8     7     3     2
  -0.111020986959         8     7     3     3
   0.490161400907E-03     8     7     4     1
   0.101695942731E-01     8     7     4     2
   0.984455572617E-15     8     7     4     3
  -0.112867588634         8     7     4     4
   0.313210022546E-16     8     7     5     1
  -0.676555763613E-18     8     7     5     2
   0.317042835490E-16     8     7     5     3
   0.135854986479E-17     8     7     5     4
  -0.110955138046         8     7     5     5
  -0.132853000066E-02     8     7     6     1
   0.170691287849E-01     8     7     6     2
   0.447558656802E-15     8     7     6     3
   0.133337164477E-01     8     7     6     4
  -0.243312639834E-16     8     7     6     5
  -0.404980896280E-01     8     7     6     6
   0.220309881449E-15     8     7     7     1
   0.166533453694E-15     8     7     7     2
  -0.317740109984E-01     8     7     7     3
   0.179543879764E-15     8     7     7     4
  -0.109497555589E-15     8     7     7     5
  -0.263677968348E-15     8     7     7     6
  -0.399961578582E-01     8     7     7     7
   0.208166817117E-16     8     7     8     1
   0.634908792208E-15     8     7     8     2
   0.228765570753E-02     8     7     8     3
   0.114838694110E-14     8     7     8     4
  -0.633416123180E-16     8     7     8     5
   0.245636844198E-14     8     7     8     6
   0.402370523859E-01     8     7     8     7
   0.517995166985         8     8     1     1
  -0.224464419901E-02     8     8     2     1
   0.466773063934         8     8     2     2
  -0.478783679370E-15     8     8     3     1
  -0.724420523568E-14     8     8     3     2
   0.478202446294         8     8     3     3
   0.151106692796E-02     8     8     4     1
   0.252269747103E-01     8     8     4     2
  -0.381639164715E-14     8     8     4     3
   0.444710800316         8     8     4     4
  -0.452193663186E-16     8     8     5     1
   0.827792634343E-16     8     8     5     2
   0.221062797686E-16     8     8     5     3
   0.256018520028E-16     8     8     5     4
   0.427813072062         8     8     5     5
   0.369058695019E-03     8     8     6     1
  -0.241259011955E-01     8     8     6     2
  -0.469069227904E-14     8     8     6     3
  -0.839689740798E-02     8     8     6     4
   0.620952783896E-16     8     8     6     5